/*--------------------------------*- C++ -*----------------------------------*\
  =========                 |
  \\      /  F ield         | OpenFOAM: The Open Source CFD Toolbox
   \\    /   O peration     | Website:  https://openfoam.org
    \\  /    A nd           | Version:  11
     \\/     M anipulation  |
\*---------------------------------------------------------------------------*/
FoamFile
{
    format      ascii;
    class       volScalarField;
    location    "100";
    object      epsilon;
}
// * * * * * * * * * * * * * * * * * * * * * * * * * * * * * * * * * * * * * //

dimensions      [0 2 -3 0 0 0 0];

internalField   nonuniform List<scalar> 
12225
(
285.523
270.712
257.907
243.825
232.441
223.117
216.773
212.721
212.757
213.999
217.27
221
228.219
232.934
241.769
246.442
256.842
258.554
52.4869
91.9002
106.961
114.778
124.832
136.843
152.703
170.012
191.239
211.133
235.586
255.88
281.874
300.143
326.486
341.396
367.806
385.96
20.526
34.8808
44.6666
50.4826
55.3854
59.6309
64.6567
69.6813
76.3369
83.2661
91.5225
99.5031
108.378
117.37
126
136.366
143.643
156.997
16.003
19.4888
24.0765
27.5698
30.4915
32.8792
35.1518
37.3087
39.5046
41.9471
44.3546
47.2652
49.7349
53.1739
55.5568
59.5394
61.7795
66.4858
15.0386
15.7133
17.3969
19.0814
20.6368
22.0303
23.2445
24.4379
25.4447
26.6068
27.5298
28.7817
29.6532
31.0325
31.8685
33.372
34.1839
35.914
14.7897
14.8258
15.2493
15.8686
16.5663
17.2889
17.9229
18.5873
19.1196
19.7394
20.1966
20.8089
21.2183
21.8422
22.222
22.8698
23.2176
23.9587
14.7657
14.6147
14.6409
14.726
14.9345
15.2207
15.4912
15.8102
16.0712
16.385
16.6198
16.9247
17.1357
17.436
17.6268
17.9326
18.0961
18.4497
14.7686
14.5867
14.4659
14.3802
14.3676
14.3895
14.4395
14.5338
14.6185
14.7375
14.8316
14.9583
15.0498
15.1802
15.2659
15.4016
15.4739
15.6407
14.768
14.591
14.4349
14.2963
14.185
14.1044
14.0398
14.0067
13.9814
13.9787
13.9811
13.9922
14.0044
14.0313
14.0482
14.0846
14.1015
14.1601
14.7665
14.594
14.432
14.2821
14.1429
14.0219
13.9114
13.8193
13.7369
13.6697
13.6101
13.5633
13.5181
13.4874
13.4521
13.4354
13.4036
13.4043
14.7659
14.5945
14.4322
14.2803
14.1361
14.0032
13.8781
13.7643
13.658
13.5627
13.4733
13.3949
13.3195
13.2558
13.1914
13.1408
13.0841
13.0461
14.7657
14.5943
14.4321
14.2798
14.1353
13.9998
13.8714
13.7517
13.6384
13.5335
13.4338
13.3427
13.2554
13.1767
13.0999
13.0326
12.9646
12.9076
14.7657
14.5941
14.432
14.2794
14.135
13.9989
13.8698
13.7484
13.6331
13.5248
13.4218
13.3255
13.2335
13.1481
13.066
12.9903
12.917
12.8502
14.7657
14.594
14.4318
14.2791
14.1346
13.9983
13.8691
13.7472
13.6315
13.5222
13.4183
13.3202
13.2269
13.1388
13.0549
12.9758
12.9002
12.8292
14.7657
14.5938
14.4317
14.2787
14.1342
13.9977
13.8686
13.7464
13.6307
13.5211
13.4171
13.3185
13.2249
13.1361
13.0516
12.9715
12.8953
12.823
14.7657
14.5938
14.4316
14.2785
14.1339
13.9973
13.8681
13.7458
13.63
13.5203
13.4162
13.3175
13.2237
13.1348
13.0502
12.9699
12.8935
12.8208
14.7657
14.5937
14.4315
14.2783
14.1337
13.997
13.8677
13.7453
13.6295
13.5196
13.4155
13.3167
13.2229
13.1338
13.0492
12.9687
12.8922
12.8195
14.7657
14.5937
14.4314
14.2782
14.1335
13.9968
13.8674
13.745
13.6291
13.5192
13.415
13.3161
13.2222
13.1331
13.0484
12.9679
12.8913
12.8185
14.7657
14.5937
14.4314
14.2782
14.1335
13.9967
13.8673
13.7449
13.6289
13.519
13.4147
13.3158
13.2219
13.1327
13.048
12.9674
12.8908
12.8179
14.7657
14.5937
14.4314
14.2782
14.1336
13.9968
13.8675
13.745
13.6291
13.5191
13.4149
13.316
13.2222
13.1329
13.0483
12.9677
12.8911
12.8181
14.7657
14.5937
14.4315
14.2784
14.1338
13.9971
13.8678
13.7454
13.6295
13.5197
13.4155
13.3168
13.2231
13.1341
13.0496
12.9693
12.893
12.8204
14.7657
14.5937
14.4316
14.2785
14.1341
13.9975
13.8685
13.7465
13.6312
13.5221
13.4192
13.3215
13.2295
13.1421
13.0597
12.9813
12.9077
12.8372
14.7659
14.5937
14.4318
14.2788
14.1353
14.0002
13.8742
13.756
13.6464
13.5436
13.4486
13.3593
13.2772
13.1994
13.1284
13.0603
12.9991
12.9389
14.7661
14.5928
14.4329
14.2844
14.1515
14.0322
13.929
13.8376
13.7593
13.6894
13.6307
13.577
13.5328
13.4905
13.4574
13.4229
13.3987
13.3691
14.7641
14.5937
14.461
14.3604
14.3029
14.2767
14.2796
14.2939
14.3201
14.3529
14.3957
14.4343
14.4821
14.5213
14.5714
14.6082
14.6606
14.6927
14.757
14.6921
14.7579
14.9173
15.1827
15.4611
15.7473
16.012
16.2719
16.5034
16.7354
16.9378
17.1495
17.3295
17.5291
17.6914
17.8859
18.0325
14.9575
15.4344
16.5692
17.6885
18.705
19.5677
20.3366
20.9965
21.6182
22.1651
22.7168
23.2088
23.7365
24.2006
24.7274
25.1765
25.7168
26.1564
16.258
20.939
25.0148
27.7589
29.7837
31.3584
32.775
34.0573
35.3558
36.6134
37.969
39.2911
40.7506
42.1347
43.7001
45.1541
46.8557
48.3269
29.9427
47.2248
54.87
58.6728
61.6118
64.4298
67.5741
70.9729
74.7264
78.7005
82.963
87.3185
91.8671
96.4061
101.04
105.555
110.087
114.477
165.79
160.073
154.9
149.564
144.48
139.677
135.614
132.109
129.269
126.971
125.317
124.039
123.332
122.818
122.815
122.965
123.245
123.801
3.65899
2.27538
3.38426
4.36212
5.23847
6.02234
6.70974
7.26971
7.65293
7.80025
7.60804
7.54013
7.70001
7.79763
7.3552
5.5957
5.73713
6.27971
6.99217
7.67675
8.90414
42.1615
49.4594
55.8581
63.0943
71.0675
79.8358
89.3352
99.5766
110.472
122.014
134.1
146.721
159.769
173.233
187.008
201.096
215.4
229.932
244.605
259.443
274.367
289.412
304.511
319.701
334.919
350.205
365.502
380.85
396.197
411.582
426.955
442.352
457.727
473.108
488.454
503.789
519.076
534.33
549.522
564.66
579.722
594.704
609.597
624.385
639.071
653.624
668.059
682.334
696.485
710.458
724.319
737.997
751.585
764.994
778.338
791.51
804.64
817.602
830.515
843.165
855.583
867.337
878.132
884.381
902.133
918.71
929.032
941.844
952.268
963.393
972.707
993.964
1002.66
1027.87
1043.21
1061.07
1079.76
1094.28
1108.42
1122.8
1133.79
1141.31
1139.5
1151.32
1178.52
1179.55
1190.48
1216.77
1214.97
1239.59
1234.4
1255.56
1250.15
1266.45
1262.82
1274.05
1268.09
1271.1
1278.69
1272.68
1268.75
1261.4
1252.08
1240.77
1227.55
1212.35
1195.23
1176.05
1154.97
1132.02
1107.38
1081.16
1053.54
1024.3
993.789
962.304
930.056
897.28
864.197
830.824
797.614
765.293
732.46
701.912
679.861
660.143
640.849
621.771
602.994
584.566
566.554
549.044
531.727
514.698
498.431
482.826
467.595
452.816
438.577
424.972
412.038
399.72
387.979
376.829
366.256
356.237
346.748
337.776
329.285
321.255
313.625
306.415
299.402
292.938
285.939
280.311
271.675
266.672
243.942
8.05632
4.91806
4.64325
4.87295
5.29979
5.82904
6.42479
7.06197
7.72188
8.40593
9.15092
10.005
10.9878
12.0967
13.3874
15.0703
17.114
19.388
22.1014
25.6157
30.474
37.4755
42.1134
46.5549
51.2114
56.0978
61.211
66.5159
71.9827
77.5848
83.3072
89.1283
95.0387
101.022
107.073
113.179
119.338
125.542
131.791
138.08
144.409
150.776
157.186
163.637
170.12
176.629
183.166
189.726
196.311
202.915
209.539
216.178
222.831
229.492
236.162
242.833
249.504
256.171
262.829
269.475
276.104
282.712
289.294
295.847
302.365
308.845
315.282
321.673
328.011
334.297
340.524
346.696
352.806
358.86
364.849
370.78
376.642
382.441
388.159
393.794
399.316
404.716
409.962
415.086
420.199
426.33
431.956
436.977
442.243
447.343
452.672
458.169
464.489
469.987
476.753
482.394
488.156
493.663
498.458
503.006
507.183
510.597
513.438
515.913
520.049
524.462
525.032
532.888
537.732
540.06
544.175
544.947
546.861
548.364
552.999
552.068
553.653
553.849
554.822
557.073
555.188
553.732
551.359
548.227
544.444
539.984
534.835
528.991
522.415
515.133
507.109
498.366
488.938
478.869
468.153
456.878
445.13
432.98
420.505
407.781
394.85
381.806
368.806
355.687
342.77
331.313
320.566
310.129
299.893
289.869
280.079
270.545
261.3
252.269
243.268
234.55
226.158
218.037
210.194
202.644
195.413
188.521
181.958
175.712
169.78
164.157
158.832
153.795
149.037
144.544
140.31
136.31
132.559
128.98
125.708
122.435
119.775
116.659
116.766
117.192
14.4829
7.93882
6.85397
6.74958
7.00942
7.47637
8.1013
8.87498
9.80663
10.9095
12.1872
13.6494
15.3092
17.1792
19.28
21.6205
24.1351
26.8083
29.7055
32.917
36.4958
40.3635
44.2222
48.1445
52.1912
56.3715
60.6207
64.9257
69.317
73.7957
78.3573
82.9935
87.6991
92.4702
97.3064
102.2
107.146
112.143
117.188
122.279
127.413
132.591
137.809
143.066
148.359
153.686
159.046
164.436
169.856
175.303
180.775
186.271
191.788
197.324
202.877
208.443
214.019
219.604
225.193
230.782
236.369
241.949
247.519
253.073
258.608
264.119
269.601
275.051
280.462
285.832
291.155
296.427
301.644
306.802
311.895
316.92
321.869
326.738
331.52
336.209
340.8
345.295
349.704
354.057
358.408
362.825
367.055
371.133
375.195
379.21
383.246
387.301
391.403
395.338
399.329
403.006
406.558
409.887
412.944
415.808
418.451
420.854
423.131
425.44
428.031
430.517
432.672
435.931
438.314
440.174
442.113
443.386
444.832
446.232
447.943
448.363
448.748
448.814
449.113
449.236
448.235
447.027
445.309
443.066
440.322
437.049
433.224
428.83
423.85
418.279
412.115
405.368
398.06
390.218
381.869
373.063
363.856
354.302
344.457
334.374
324.095
313.677
303.198
292.696
282.354
272.556
263.172
254.055
245.147
236.448
227.972
219.734
211.75
204
196.439
189.122
182.041
175.148
168.493
162.074
155.906
150.008
144.377
139.009
133.902
129.053
124.455
120.101
115.985
112.095
108.429
104.971
101.726
98.6609
95.8292
93.1207
90.7867
88.403
87.4555
87.3018
21.7667
11.3666
9.4773
9.08422
9.23133
9.68433
10.3624
11.2406
12.3164
13.5947
15.0817
16.7822
18.6939
20.8082
23.1115
25.5833
28.1945
30.9342
33.8197
36.8803
40.1318
43.5478
47.0805
50.7181
54.4547
58.2769
62.2035
66.2406
70.3724
74.5946
78.9042
83.2863
87.7318
92.2289
96.7913
101.418
106.109
110.862
115.674
120.542
125.465
130.441
135.467
140.542
145.663
150.828
156.036
161.284
166.572
171.897
177.257
182.651
188.077
193.533
199.016
204.524
210.054
215.603
221.168
226.745
232.331
237.922
243.513
249.1
254.677
260.24
265.783
271.299
276.784
282.231
287.633
292.985
298.279
303.509
308.667
313.746
318.737
323.633
328.428
333.115
337.691
342.157
346.52
350.793
354.986
359.096
363.073
366.924
370.679
374.345
377.933
381.439
384.85
388.127
391.282
394.247
397.043
399.653
402.072
404.323
406.416
408.372
410.249
412.108
413.982
415.787
417.533
419.4
420.974
422.314
423.527
424.515
425.442
426.266
427.026
427.23
427.121
426.999
426.746
426.206
425.162
423.791
422.008
419.782
417.098
413.93
410.229
405.992
401.207
395.865
389.966
383.519
376.54
369.055
361.095
352.702
343.925
334.811
325.412
315.775
305.954
296.017
286.045
276.107
266.318
256.827
247.626
238.669
229.935
221.424
213.149
205.123
197.356
189.844
182.575
175.563
168.808
162.294
156.025
149.966
144.119
138.513
133.141
128.008
123.113
118.455
114.03
109.831
105.857
102.097
98.5483
95.2036
92.0611
89.1048
86.3567
83.7772
81.4761
79.324
77.7805
77.1773
29.3946
15.1154
12.3483
11.654
11.6773
12.0969
12.7909
13.714
14.8514
16.1998
17.7599
19.5302
21.5033
23.6656
25.9994
28.4849
31.1046
33.8494
36.7218
39.7301
42.8793
46.1628
49.5687
53.0884
56.7158
60.4469
64.2824
68.2209
72.2571
76.385
80.6
84.9032
89.2936
93.7716
98.3356
102.981
107.705
112.504
117.377
122.32
127.332
132.41
137.552
142.756
148.019
153.339
158.715
164.144
169.625
175.156
180.735
186.36
192.03
197.742
203.494
209.284
215.108
220.965
226.85
232.759
238.69
244.637
250.596
256.56
262.525
268.483
274.429
280.354
286.252
292.114
297.933
303.698
309.402
315.035
320.586
326.047
331.406
336.655
341.784
346.786
351.655
356.389
360.989
365.459
369.798
373.999
378.048
381.944
385.694
389.302
392.77
396.094
399.267
402.275
405.115
407.77
410.241
412.526
414.631
416.568
418.35
419.999
421.544
423.012
424.404
425.705
426.914
428.049
429.019
429.825
430.471
431
431.392
431.539
431.486
431.226
430.794
430.199
429.401
428.331
426.91
425.157
423.028
420.493
417.524
414.096
410.163
405.714
400.732
395.21
389.143
382.54
375.414
367.79
359.698
351.178
342.274
333.032
323.505
313.75
303.835
293.832
283.816
273.858
264.043
254.449
245.096
235.978
227.093
218.448
210.054
201.923
194.063
186.477
179.162
172.122
165.356
158.857
152.621
146.63
140.88
135.359
130.044
124.952
120.084
115.44
111.018
106.814
102.828
99.0462
95.4754
92.1088
88.9428
85.9688
83.1959
80.6115
78.2679
76.1396
74.3972
73.3329
36.9234
18.9471
15.303
14.2944
14.1871
14.5509
15.2312
16.1603
17.3102
18.6697
20.2335
21.9967
23.9511
26.0851
28.3843
30.8338
33.4211
36.1382
38.9823
41.9541
45.0543
48.2811
51.6311
55.1005
58.6866
62.3872
66.2013
70.1274
74.1634
78.3069
82.5562
86.9106
91.3693
95.9312
100.595
105.357
110.216
115.168
120.212
125.344
130.562
135.864
141.246
146.706
152.242
157.852
163.533
169.283
175.101
180.984
186.93
192.938
199.006
205.132
211.313
217.546
223.83
230.161
236.535
242.949
249.398
255.878
262.381
268.903
275.436
281.974
288.507
295.027
301.525
307.991
314.414
320.784
327.088
333.314
339.451
345.486
351.406
357.199
362.854
368.359
373.707
378.89
383.906
388.751
393.421
397.909
402.209
406.315
410.227
413.948
417.475
420.806
423.938
426.867
429.59
432.103
434.408
436.507
438.408
440.119
441.652
443.024
444.253
445.351
446.323
447.172
447.883
448.446
448.875
449.165
449.225
449.064
448.813
448.381
447.796
447.018
446.054
444.895
443.515
441.872
439.926
437.657
435.032
432.019
428.588
424.705
420.342
415.476
410.089
404.169
397.713
390.725
383.217
375.211
366.738
357.834
348.543
338.919
329.022
318.918
308.679
298.375
288.078
277.855
267.771
257.883
248.219
238.79
229.607
220.68
212.022
203.645
195.556
187.759
180.256
173.046
166.129
159.499
153.15
147.071
141.253
135.685
130.353
125.235
120.324
115.624
111.136
106.861
102.8
98.9441
95.3006
91.8628
88.6271
85.5883
82.7504
80.1113
77.6988
75.5198
73.6543
72.2408
44.1114
22.7021
18.2021
16.8738
16.6288
16.9232
17.5704
18.4813
19.6157
20.9549
22.489
24.2112
26.1141
28.189
30.4256
32.8137
35.3442
38.0106
40.8092
43.7383
46.7972
49.9853
53.3016
56.7449
60.3143
64.0093
67.8295
71.7743
75.8433
80.0358
84.3512
88.789
93.3485
98.0288
102.829
107.746
112.778
117.924
123.181
128.545
134.014
139.587
145.259
151.028
156.892
162.848
168.894
175.028
181.247
187.55
193.936
200.401
206.944
213.562
220.255
227.018
233.85
240.747
247.705
254.721
261.788
268.902
276.057
283.245
290.459
297.689
304.927
312.161
319.382
326.575
333.73
340.832
347.868
354.821
361.679
368.424
375.041
381.516
387.834
393.981
399.944
405.714
411.282
416.64
421.782
426.7
431.386
435.835
440.044
444.01
447.733
451.211
454.442
457.425
460.16
462.648
464.892
466.896
468.668
470.215
471.55
472.681
473.622
474.377
474.956
475.395
475.641
475.64
475.437
475.11
474.573
473.861
472.985
471.932
470.704
469.285
467.667
465.837
463.776
461.454
458.846
455.922
452.657
449.016
444.97
440.488
435.542
430.105
424.161
417.695
410.702
403.183
395.15
386.623
377.63
368.212
358.418
348.307
337.945
327.4
316.743
306.043
295.369
284.781
274.336
264.082
254.05
244.26
234.729
225.472
216.501
207.827
199.459
191.399
183.651
176.214
169.087
162.263
155.737
149.499
143.539
137.847
132.41
127.212
122.233
117.449
112.865
108.488
104.323
100.368
96.6239
93.0884
89.7581
86.6299
83.7053
80.986
78.4882
76.2262
74.2487
72.571
50.7546
26.2475
20.9331
19.2881
18.9014
19.1174
19.7195
20.5983
21.7025
23.0063
24.4964
26.1645
28.0043
30.0092
32.1728
34.4884
36.9501
39.5532
42.2946
45.1725
48.1863
51.3357
54.6205
58.0411
61.5977
65.2907
69.1208
73.0885
77.1945
81.439
85.8225
90.3451
95.0067
99.8069
104.745
109.82
115.029
120.372
125.846
131.448
137.176
143.028
149.001
155.091
161.298
167.618
174.049
180.59
187.236
193.988
200.843
207.799
214.855
222.007
229.255
236.595
244.025
251.541
259.139
266.816
274.565
282.381
290.256
298.184
306.154
314.157
322.183
330.218
338.25
346.265
354.247
362.181
370.049
377.835
385.519
393.084
400.511
407.78
414.875
421.778
428.472
434.944
441.181
447.171
452.904
458.37
463.56
468.467
473.085
477.413
481.445
485.181
488.62
491.762
494.609
497.162
499.426
501.406
503.11
504.546
505.722
506.651
507.34
507.782
507.956
507.894
507.628
507.124
506.409
505.487
504.343
502.991
501.436
499.679
497.719
495.548
493.157
490.537
487.671
484.541
481.125
477.399
473.338
468.914
464.1
458.865
453.183
447.031
440.389
433.243
425.587
417.42
408.754
399.609
390.018
380.024
369.679
359.044
348.186
337.171
326.07
314.949
303.871
292.894
282.069
271.439
261.037
250.888
241.011
231.424
222.139
213.167
204.514
196.186
188.183
180.506
173.152
166.116
159.392
152.97
146.841
140.993
135.414
130.091
125.008
120.133
115.442
110.952
106.672
102.605
98.7519
95.1099
91.6771
88.4508
85.4316
82.6219
80.0315
77.6738
75.583
73.6984
56.6889
29.4738
23.4074
21.4583
20.9301
21.0643
21.6155
22.4559
23.5238
24.7876
26.2306
27.8432
29.6196
31.5551
33.6457
35.8875
38.2771
40.8119
43.4901
46.3105
49.273
52.3776
55.6253
59.0168
62.5535
66.2366
70.0677
74.0483
78.18
82.4641
86.9019
91.4945
96.2426
101.147
106.206
111.421
116.791
122.314
127.989
133.814
139.787
145.906
152.168
158.572
165.114
171.793
178.606
185.553
192.629
199.835
207.168
214.627
222.209
229.912
237.736
245.676
253.731
261.897
270.169
278.544
287.015
295.577
304.22
312.937
321.718
330.552
339.426
348.326
357.238
366.144
375.029
383.872
392.654
401.355
409.953
418.427
426.753
434.911
442.878
450.632
458.155
465.427
472.432
479.154
485.579
491.694
497.489
502.954
508.081
512.865
517.304
521.392
525.131
528.519
531.559
534.254
536.608
538.626
540.317
541.689
542.752
543.52
543.952
544.058
543.85
543.394
542.666
541.663
540.394
538.864
537.071
535.025
532.729
530.19
527.407
524.379
521.1
517.564
513.761
509.679
505.302
500.614
495.594
490.22
484.469
478.316
471.738
464.716
457.23
449.269
440.827
431.907
422.52
412.691
402.456
391.856
380.944
369.781
358.428
346.953
335.421
323.895
312.433
301.09
289.912
278.937
268.199
257.727
247.542
237.66
228.094
218.854
209.944
201.37
193.133
185.232
177.666
170.429
163.514
156.912
150.612
144.605
138.877
133.417
128.209
123.229
118.431
113.828
109.435
105.257
101.295
97.5478
94.0134
90.6894
87.5755
84.6737
81.9897
79.5334
77.33
75.2781
61.7955
32.2997
25.5631
23.3323
22.6681
22.7218
23.2209
24.0217
25.0535
26.2793
27.679
29.2419
30.9618
32.8351
34.8593
37.0325
39.3534
41.8207
44.4341
47.1935
50.0995
53.1529
56.3552
59.708
63.2135
66.8738
70.6915
74.6689
78.8086
83.1129
87.5843
92.2246
97.0357
102.019
107.175
112.506
118.01
123.687
129.538
135.56
141.754
148.116
154.647
161.342
168.202
175.224
182.406
189.747
197.245
204.899
212.707
220.667
228.778
237.038
245.446
253.998
262.692
271.524
280.491
289.587
298.806
308.141
317.585
327.127
336.757
346.462
356.228
366.041
375.882
385.733
395.576
405.387
415.144
424.825
434.403
443.854
453.151
462.269
471.182
479.864
488.292
496.442
504.293
511.827
519.025
525.87
532.35
538.453
544.167
549.487
554.407
558.924
563.034
566.739
570.04
572.939
575.441
577.551
579.276
580.627
581.615
582.212
582.414
582.242
581.735
580.894
579.719
578.212
576.378
574.221
571.745
568.956
565.862
562.468
558.777
554.793
550.513
545.937
541.061
535.878
530.382
524.564
518.411
511.909
505.041
497.793
490.148
482.09
473.608
464.695
455.349
445.578
435.397
424.833
413.923
402.705
391.228
379.548
367.727
355.825
343.902
332.018
320.224
308.571
297.098
285.84
274.829
264.098
253.668
243.554
233.766
224.312
215.198
206.426
197.998
189.913
182.169
174.762
167.683
160.924
154.474
148.322
142.457
136.867
131.537
126.444
121.541
116.833
112.337
108.058
103.998
100.155
96.5275
93.1128
89.9102
86.9207
84.1471
81.5958
79.2846
77.0939
66.0039
34.6743
27.3649
24.8841
24.0943
24.0749
24.5212
25.2844
26.2839
27.4774
28.842
30.3649
32.0395
33.8621
35.8312
37.9458
40.2058
42.6114
45.1633
47.8624
50.7101
53.7083
56.8591
60.1651
63.6293
67.2549
71.0453
75.004
79.1344
83.4401
87.9245
92.5906
97.4414
102.48
107.707
113.126
118.738
124.544
130.545
136.739
143.129
149.712
156.488
163.456
170.614
177.963
185.499
193.223
201.132
209.226
217.503
225.962
234.602
243.421
252.417
261.588
270.931
280.442
290.116
299.95
309.935
320.066
330.332
340.723
351.228
361.833
372.522
383.279
394.083
404.916
415.753
426.572
437.346
448.048
458.651
469.124
479.439
489.565
499.473
509.133
518.516
527.596
536.347
544.745
552.768
560.398
567.617
574.411
580.766
586.675
592.129
597.124
601.657
605.726
609.334
612.482
615.173
617.413
619.209
620.569
621.492
621.955
621.978
621.582
620.775
619.563
617.95
615.935
613.526
610.723
607.534
603.96
600.013
595.696
591.018
585.982
580.593
574.854
568.769
562.337
555.562
548.443
540.979
533.165
524.997
516.469
507.576
498.315
488.683
478.683
468.321
457.608
446.565
435.221
423.614
411.774
399.745
387.578
375.33
363.054
350.804
338.631
326.582
314.699
303.017
291.563
280.364
269.462
258.874
248.611
238.682
229.092
219.845
210.942
202.386
194.173
186.304
178.774
171.576
164.699
158.133
151.867
145.891
140.192
134.756
129.56
124.559
119.762
115.18
110.818
106.677
102.754
99.0475
95.5548
92.2744
89.2066
86.3519
83.7136
81.3036
78.998
69.2825
36.5698
28.7955
26.1015
25.1968
25.1136
25.5164
26.2483
27.2225
28.3924
29.7323
31.2277
32.8707
34.6575
36.5861
38.6562
40.8683
43.2232
45.7225
48.368
51.162
54.1072
57.2068
60.4644
63.8839
67.4697
71.2263
75.1582
79.2698
83.5657
88.0504
92.7282
97.6034
102.68
107.962
113.453
119.155
125.071
131.204
137.555
144.125
150.915
157.925
165.154
172.603
180.271
188.158
196.261
204.581
213.117
221.867
230.83
240.006
249.393
258.988
268.789
278.794
288.997
299.395
309.982
320.751
331.693
342.799
354.057
365.455
376.978
388.607
400.326
412.112
423.943
435.794
447.638
459.446
471.188
482.832
494.346
505.696
516.848
527.768
538.422
548.778
558.805
568.473
577.753
586.622
595.055
603.032
610.535
617.551
624.067
630.075
635.567
640.541
644.994
648.927
652.341
655.239
657.626
659.506
660.885
661.76
662.125
661.993
661.368
660.262
658.68
656.624
654.093
651.091
647.619
643.681
639.281
634.425
629.122
623.377
617.199
610.596
603.576
596.148
588.323
580.111
571.522
562.568
553.257
543.601
533.608
523.292
512.663
501.732
490.515
479.03
467.29
455.32
443.153
430.817
418.333
405.758
393.139
380.519
367.944
355.456
343.097
330.904
318.908
307.136
295.604
284.334
273.369
262.73
252.423
242.451
232.819
223.528
214.579
205.971
197.702
189.775
182.186
174.925
167.983
161.348
155.01
148.959
143.185
137.67
132.39
127.314
122.452
117.809
113.388
109.188
105.207
101.441
97.8871
94.5446
91.4121
88.4886
85.7753
83.2789
80.8806
71.6312
37.98
29.8567
26.993
25.9934
25.8573
26.2256
26.9346
27.8925
29.0496
30.3777
31.8604
33.4887
35.2576
37.1647
39.2096
41.3926
43.7151
46.179
48.7868
51.5416
54.4469
57.5072
60.7269
64.1114
67.6664
71.3985
75.3119
79.4116
83.7031
88.1921
92.8844
97.7857
102.902
108.238
113.8
119.593
125.621
131.888
138.4
145.157
152.162
159.415
166.918
174.671
182.675
190.928
199.43
208.182
217.181
226.428
235.92
245.657
255.637
265.857
276.315
287.006
297.927
309.072
320.434
332.005
343.778
355.74
367.879
380.181
392.629
405.205
417.888
430.656
443.482
456.341
469.201
482.031
494.799
507.468
520.004
532.368
544.522
556.43
568.053
579.356
590.302
600.859
610.994
620.679
629.888
638.597
646.785
654.436
661.536
668.074
674.042
679.435
684.251
688.49
692.153
695.242
697.76
699.711
701.1
701.925
702.185
701.885
701.007
699.583
697.611
695.089
692.016
688.388
684.208
679.476
674.195
668.369
662.005
655.111
647.696
639.771
631.35
622.447
613.082
603.275
593.05
582.43
571.443
560.12
548.489
536.58
524.433
512.064
499.488
486.684
473.752
460.734
447.678
434.629
421.614
408.612
395.656
382.781
370.02
357.407
344.972
332.742
320.742
308.989
297.49
286.246
275.357
264.806
254.588
244.701
235.148
225.927
217.039
208.479
200.237
192.331
184.757
177.502
170.558
163.911
157.552
151.473
145.665
140.107
134.774
129.66
124.767
120.096
115.647
111.416
107.401
103.599
100.006
96.6211
93.4414
90.4651
87.6919
85.1244
82.6548
73.079
38.9158
30.5642
27.5807
26.5113
26.337
26.6832
27.3809
28.3352
29.4939
30.8269
32.3163
33.9516
35.7267
37.6385
39.6856
41.8683
44.1878
46.6463
49.2465
51.9925
54.8885
57.94
61.1535
64.5342
68.0877
71.8205
75.7392
79.851
84.1633
88.6836
93.4191
98.3776
103.567
108.994
114.667
120.592
126.775
133.221
139.935
146.922
154.185
161.729
169.555
177.663
186.055
194.73
203.687
212.927
222.447
232.246
242.324
252.678
263.304
274.201
285.364
296.787
308.467
320.396
332.566
344.968
357.591
370.424
383.453
396.661
410.03
423.541
437.17
450.894
464.683
478.51
492.341
506.142
519.878
533.51
546.999
560.304
573.385
586.201
598.71
610.873
622.652
634.01
644.912
655.326
665.224
674.579
683.368
691.571
699.175
706.165
712.533
718.273
723.382
727.861
731.708
734.927
737.519
739.487
740.837
741.572
741.676
741.149
739.971
738.181
735.769
732.729
729.056
724.744
719.791
714.195
707.955
701.075
693.56
685.416
676.655
667.29
657.338
646.823
635.772
624.217
612.197
599.749
586.918
573.77
560.344
546.644
532.7
518.641
504.542
490.559
476.605
462.708
448.918
435.318
421.763
408.345
395.093
382.028
369.171
356.538
344.147
332.013
320.147
308.557
297.239
286.169
275.456
265.076
255.025
245.301
235.904
226.83
218.079
209.645
201.519
193.73
186.261
179.097
172.228
165.64
159.32
153.267
147.473
141.912
136.583
131.479
126.597
121.935
117.492
113.263
109.245
105.434
101.827
98.4214
95.2151
92.2049
89.3898
86.7689
84.2494
73.6529
39.3945
30.9423
27.8962
26.7894
26.5979
26.9408
27.6457
28.6164
29.7992
31.1629
32.6881
34.3632
36.1809
38.1371
40.2297
42.4583
44.8239
47.3285
49.9752
52.7686
55.7141
58.8161
62.0798
65.5126
69.1221
72.9163
76.9038
81.0936
85.4951
90.1179
94.9714
100.066
105.41
111.014
116.887
123.037
129.472
136.198
143.221
150.547
158.18
166.124
174.382
182.957
191.849
201.056
210.579
220.416
230.565
241.023
251.788
262.856
274.222
285.882
297.829
310.058
322.56
335.326
348.347
361.612
375.108
388.82
402.735
416.832
431.094
445.497
460.019
474.631
489.306
504.01
518.711
533.372
547.955
562.419
576.722
590.823
604.678
618.243
631.476
644.334
656.777
668.767
680.267
691.243
701.663
711.5
720.729
729.33
737.284
744.579
751.203
757.151
762.42
767.008
770.916
774.146
776.698
778.575
779.783
780.319
780.176
779.32
777.754
775.505
772.559
768.906
764.536
759.441
753.612
747.046
739.739
731.691
722.904
713.388
703.151
692.212
680.591
668.32
655.432
641.984
628.021
613.6
598.716
583.436
567.911
552.31
536.784
521.298
505.993
490.696
475.567
460.665
446.036
431.71
417.67
403.93
390.498
377.376
364.566
352.069
339.883
328.008
316.442
305.182
294.218
283.548
273.193
263.156
253.434
244.024
234.924
226.13
217.639
209.443
201.518
193.913
186.609
179.592
172.852
166.376
160.143
154.176
148.454
142.966
137.708
132.67
127.846
123.237
118.84
114.649
110.661
106.871
103.277
99.8764
96.6667
93.644
90.8074
88.1524
85.605
73.5143
39.4797
31.0496
28.0028
26.895
26.7158
27.0864
27.832
28.8564
30.1057
31.5477
33.1622
34.9364
36.862
38.9341
41.15
43.5086
46.0104
48.6569
51.451
54.3963
57.4974
60.7605
64.1925
67.8016
71.5965
75.587
79.7835
84.1973
88.8397
93.7224
98.8571
104.256
109.93
115.892
122.151
128.717
135.6
142.807
150.345
158.22
166.437
174.997
183.903
193.158
202.763
212.715
223.011
233.649
244.624
255.932
267.566
279.52
291.786
304.357
317.222
330.373
343.797
357.482
371.417
385.587
399.976
414.569
429.348
444.292
459.381
474.592
489.899
505.275
520.688
536.108
551.498
566.822
582.04
597.112
611.993
626.642
641.014
655.066
668.753
682.033
694.865
707.211
719.033
730.296
740.97
751.024
760.434
769.177
777.235
784.594
791.24
797.169
802.376
806.86
810.622
813.663
815.982
817.582
818.475
818.626
818.065
816.697
814.581
811.705
808.055
803.617
798.377
792.322
785.44
777.723
769.165
759.761
749.515
738.432
726.526
713.815
700.332
686.112
671.19
655.547
639.27
622.501
605.468
588.283
570.969
553.731
536.394
519.185
502.222
485.554
469.26
453.402
438.02
423.133
408.737
394.822
381.371
368.366
355.785
343.609
331.818
320.394
309.318
298.575
288.146
278.019
268.195
258.669
249.439
240.498
231.841
223.464
215.363
207.533
199.964
192.665
185.635
178.862
172.341
166.058
159.989
154.167
148.58
143.221
138.083
133.157
128.434
123.925
119.619
115.508
111.586
107.85
104.299
100.931
97.7423
94.7303
91.8938
89.2254
86.6718
72.8886
39.3145
30.9804
27.9896
26.9399
26.8336
27.295
28.1497
29.3028
30.7009
32.3119
34.1157
36.0994
38.2544
40.5751
43.0583
45.7025
48.5073
51.4743
54.6059
57.9058
61.3791
65.0321
68.8725
72.9091
77.1517
81.6113
86.2996
91.2291
96.4128
101.864
107.596
113.623
119.959
126.617
133.606
140.937
148.619
156.662
165.071
173.851
183.003
192.529
202.427
212.694
223.328
234.325
245.681
257.389
269.44
281.825
294.534
307.554
320.875
334.482
348.361
362.497
376.875
391.478
406.291
421.296
436.474
451.809
467.279
482.864
498.544
514.294
530.091
545.906
561.711
577.475
593.163
608.74
624.168
639.407
654.417
669.156
683.58
697.65
711.322
724.556
737.313
749.556
761.25
772.361
782.858
792.713
801.901
810.399
818.188
825.252
831.577
837.155
841.984
846.061
849.388
851.963
853.782
854.849
855.165
854.744
853.491
851.417
848.532
844.816
840.252
834.82
828.504
821.283
813.145
804.075
794.066
783.11
771.209
758.371
744.613
729.944
714.337
697.845
680.574
662.726
644.4
625.643
606.681
587.368
567.955
548.609
529.421
510.535
492.081
474.154
456.837
440.189
424.245
409.014
394.479
380.61
367.366
354.702
342.574
330.94
319.76
308.995
298.613
288.581
278.871
269.46
260.336
251.487
242.907
234.586
226.517
218.692
211.11
203.765
196.65
189.765
183.112
176.679
170.462
164.463
158.674
153.101
147.741
142.591
137.644
132.894
128.331
123.962
119.78
115.78
111.956
108.305
104.829
101.524
98.3867
95.4121
92.601
89.9428
87.4066
71.5377
38.8084
30.7454
27.9316
27.0406
27.0901
27.7346
28.801
30.1988
31.8764
33.8032
35.9598
38.3338
40.9168
43.7035
46.6904
49.8757
53.2589
56.8408
60.6235
64.6106
68.807
73.2184
77.8519
82.7159
87.8199
93.1746
98.7915
104.683
110.861
117.341
124.134
131.257
138.725
146.551
154.741
163.301
172.235
181.547
191.238
201.311
211.767
222.603
233.814
245.394
257.336
269.629
282.262
295.224
308.499
322.073
335.928
350.049
364.415
379.01
393.812
408.803
423.963
439.272
454.711
470.26
485.9
501.613
517.38
533.18
548.995
564.805
580.587
596.318
611.973
627.524
642.942
658.195
673.248
688.068
702.617
716.859
730.755
744.268
757.361
769.996
782.138
793.754
804.811
815.279
825.13
834.335
842.872
850.717
857.851
864.253
869.911
874.813
878.953
882.332
884.946
886.796
887.868
888.172
887.74
886.473
884.354
881.385
877.547
872.816
867.169
860.583
853.033
844.499
834.961
824.401
812.813
800.186
786.514