/*--------------------------------*- C++ -*----------------------------------*\
  =========                 |
  \\      /  F ield         | OpenFOAM: The Open Source CFD Toolbox
   \\    /   O peration     | Website:  https://openfoam.org
    \\  /    A nd           | Version:  11
     \\/     M anipulation  |
\*---------------------------------------------------------------------------*/
FoamFile
{
    format      ascii;
    class       volScalarField;
    location    "100";
    object      k;
}
// * * * * * * * * * * * * * * * * * * * * * * * * * * * * * * * * * * * * * //

dimensions      [0 2 -2 0 0 0 0];

internalField   nonuniform List<scalar> 
12225
(
0.362814
0.344001
0.327732
0.309838
0.295373
0.283524
0.275462
0.270313
0.270359
0.27192
0.276111
0.280772
0.290039
0.295999
0.306973
0.314254
0.323573
0.33782
0.440192
0.468696
0.461605
0.448377
0.450365
0.45834
0.474463
0.498846
0.524373
0.552604
0.580945
0.606926
0.634506
0.655116
0.681285
0.696177
0.721831
0.736624
0.390545
0.417868
0.42023
0.416824
0.411632
0.407808
0.408017
0.410057
0.414547
0.42152
0.430826
0.439905
0.4515
0.461557
0.473576
0.484652
0.495169
0.509745
0.377546
0.38698
0.391407
0.391342
0.390222
0.387897
0.385663
0.384085
0.382886
0.382908
0.383415
0.384364
0.386407
0.388585
0.39115
0.394636
0.397115
0.402267
0.374562
0.376089
0.378413
0.378665
0.378263
0.377204
0.375489
0.373735
0.372011
0.370452
0.369264
0.368112
0.367401
0.366853
0.366492
0.366494
0.366551
0.3671
0.373815
0.372709
0.372645
0.372383
0.371761
0.370814
0.369553
0.368079
0.366569
0.364971
0.363524
0.36206
0.360749
0.359536
0.358399
0.35746
0.356493
0.355902
0.373783
0.371742
0.370386
0.369286
0.368234
0.367112
0.365913
0.364583
0.363234
0.361802
0.360414
0.359015
0.357665
0.356372
0.355106
0.353959
0.352792
0.351824
0.37382
0.37156
0.369635
0.367976
0.3665
0.365106
0.363774
0.362426
0.361103
0.35976
0.358441
0.357133
0.355848
0.354606
0.353381
0.352229
0.35108
0.350041
0.373832
0.371553
0.369449
0.367525
0.365776
0.364152
0.362643
0.361196
0.359813
0.358467
0.357161
0.355892
0.354653
0.353458
0.352287
0.351174
0.350075
0.349054
0.373831
0.37156
0.369418
0.367405
0.365529
0.363772
0.362131
0.360583
0.359118
0.357722
0.356387
0.355108
0.353876
0.352695
0.351552
0.350462
0.349401
0.348403
0.373829
0.371561
0.369413
0.367378
0.365458
0.363645
0.361936
0.360322
0.358795
0.357348
0.355973
0.354664
0.353414
0.352223
0.351081
0.349994
0.348945
0.347956
0.373828
0.371559
0.369409
0.367371
0.365439
0.363608
0.361875
0.360232
0.358675
0.357198
0.355795
0.354462
0.353193
0.351986
0.350832
0.349737
0.348686
0.347692
0.373827
0.371557
0.369405
0.367365
0.36543
0.363593
0.36185
0.360196
0.358624
0.357132
0.355712
0.354363
0.353079
0.351859
0.350694
0.349588
0.34853
0.347528
0.373827
0.371555
0.369402
0.36736
0.365423
0.363583
0.361837
0.360177
0.3586
0.3571
0.355673
0.354315
0.353022
0.351792
0.350619
0.349504
0.348439
0.347427
0.373826
0.371553
0.369399
0.367355
0.365416
0.363575
0.361826
0.360164
0.358584
0.357081
0.355651
0.354289
0.352993
0.351758
0.350581
0.34946
0.348391
0.347372
0.373826
0.371552
0.369396
0.367351
0.36541
0.363568
0.361818
0.360154
0.358572
0.357068
0.355635
0.354272
0.352973
0.351736
0.350557
0.349434
0.348362
0.34734
0.373825
0.371551
0.369394
0.367348
0.365406
0.363562
0.361811
0.360146
0.358563
0.357057
0.355623
0.354258
0.352958
0.35172
0.350539
0.349414
0.34834
0.347317
0.373825
0.371551
0.369393
0.367346
0.365404
0.363559
0.361806
0.36014
0.358556
0.357049
0.355614
0.354248
0.352947
0.351707
0.350526
0.349399
0.348324
0.347299
0.373825
0.37155
0.369393
0.367346
0.365403
0.363557
0.361804
0.360138
0.358553
0.357045
0.35561
0.354243
0.352942
0.351701
0.350519
0.349391
0.348315
0.347289
0.373825
0.371551
0.369394
0.367346
0.365404
0.363559
0.361807
0.36014
0.358556
0.357048
0.355614
0.354247
0.352946
0.351704
0.350522
0.349394
0.348319
0.347293
0.373825
0.371552
0.369395
0.367349
0.365407
0.363564
0.361811
0.360147
0.358563
0.357057
0.355623
0.354259
0.352958
0.35172
0.350539
0.349413
0.348339
0.347315
0.373826
0.371553
0.369397
0.367352
0.365413
0.363571
0.361823
0.360162
0.358585
0.357085
0.355659
0.354301
0.35301
0.351779
0.350607
0.349489
0.348424
0.347406
0.373826
0.371554
0.369399
0.36736
0.365429
0.363603
0.361876
0.360241
0.358692
0.357222
0.355826
0.354496
0.353231
0.352023
0.350871
0.349768
0.348718
0.347708
0.373828
0.371551
0.369412
0.367417
0.365556
0.36382
0.36219
0.360652
0.359191
0.357796
0.356459
0.355175
0.353939
0.35275
0.351605
0.350501
0.349443
0.348418
0.373823
0.371554
0.369605
0.367893
0.36634
0.364893
0.363496
0.362123
0.360763
0.359416
0.358083
0.356773
0.355492
0.354242
0.353034
0.351861
0.35074
0.349652
0.373788
0.371991
0.371113
0.370266
0.369361
0.368312
0.367049
0.365631
0.364122
0.362577
0.361032
0.359525
0.358076
0.356685
0.355385
0.354145
0.353013
0.351928
0.374355
0.375572
0.377776
0.377858
0.377288
0.375886
0.373836
0.371642
0.369506
0.367483
0.365664
0.364083
0.36271
0.361533
0.360607
0.359814
0.359284
0.358792
0.379125
0.394297
0.39825
0.396574
0.392539
0.387604
0.383646
0.380448
0.378266
0.376849
0.37649
0.376732
0.377404
0.378673
0.380415
0.382391
0.384783
0.387087
0.408394
0.42754
0.422415
0.411054
0.402225
0.397919
0.398619
0.400951
0.40605
0.413026
0.420956
0.429773
0.43876
0.448102
0.457191
0.46642
0.475156
0.483998
0.36605
0.353414
0.341989
0.330208
0.318984
0.30838
0.299412
0.291669
0.285403
0.28033
0.276677
0.273857
0.272298
0.271154
0.271183
0.271438
0.272152
0.273338
0.0123485
0.0352724
0.0526062
0.0678518
0.0815209
0.0938432
0.10496
0.114724
0.122987
0.12972
0.134881
0.139948
0.14486
0.148649
0.150416
0.149635
0.164074
0.173704
0.178318
0.176986
0.171824
0.150175
0.167493
0.181672
0.197263
0.213522
0.230579
0.24829
0.266626
0.285415
0.304615
0.324059
0.343719
0.363445
0.383223
0.402929
0.422574
0.442053
0.461396
0.480517
0.499459
0.518152
0.536649
0.554894
0.57294
0.590738
0.60834
0.625702
0.642873
0.659817
0.676575
0.693114
0.70947
0.725613
0.741571
0.757317
0.772872
0.788215
0.803359
0.818287
0.833003
0.847499
0.861768
0.875814
0.889617
0.903193
0.91651
0.929597
0.942412
0.954993
0.967288
0.979355
0.991135
1.00271
1.014
1.0251
1.03593
1.0466
1.057
1.06722
1.07711
1.08674
1.09587
1.10462
1.11309
1.12558
1.13472
1.14319
1.1525
1.16079
1.16976
1.17877
1.18966
1.20089
1.21533
1.2245
1.23681
1.24743
1.2571
1.2666
1.27481
1.27985
1.27808
1.28631
1.30565
1.30521
1.31201
1.33046
1.32816
1.33435
1.34228
1.34808
1.35478
1.35915
1.36292
1.36514
1.36896
1.37136
1.3775
1.37324
1.3766
1.3719
1.36788
1.36103
1.35323
1.34394
1.33326
1.32122
1.30769
1.29269
1.2762
1.25833
1.23908
1.21858
1.19684
1.17372
1.14954
1.12439
1.09841
1.07178
1.04458
1.01682
0.98897
0.961425
0.932851
0.907214
0.888195
0.870402
0.852725
0.835078
0.81754
0.800148
0.783002
0.76606
0.749141
0.732395
0.71627
0.700581
0.685069
0.669863
0.655081
0.640829
0.627114
0.613886
0.601152
0.588933
0.57722
0.565996
0.55526
0.544988
0.535167
0.525743
0.516739
0.507923
0.499691
0.490778
0.48359
0.472342
0.465925
0.43847
0.0275863
0.0636009
0.0878776
0.106327
0.121996
0.135912
0.148494
0.160052
0.170861
0.181265
0.191711
0.202468
0.213577
0.225287
0.238706
0.256205
0.275591
0.293663
0.310564
0.327003
0.343898
0.362283
0.386987
0.41384
0.44226
0.471848
0.502537
0.534252
0.566885
0.600304
0.6344
0.669044
0.704129
0.73953
0.77515
0.810886
0.846668
0.882412
0.918069
0.95358
0.988914
1.02403
1.05892
1.09356
1.12794
1.16204
1.19588
1.22944
1.26272
1.29572
1.32844
1.36088
1.39303
1.42489
1.45646
1.48771
1.51866
1.54927
1.57954
1.60946
1.63899
1.66814
1.69687
1.72518
1.75302
1.7804
1.80728
1.83366
1.85951
1.88483
1.9096
1.93377
1.95733
1.98027
2.00258
2.02427
2.04533
2.06579
2.08563
2.10489
2.12356
2.14167
2.15923
2.17632
2.19301
2.20927
2.22518
2.24095
2.25651
2.27191
2.2874
2.30308
2.31871
2.33481
2.35079
2.36678
2.3831
2.39935
2.41567
2.43188
2.44792
2.46362
2.47912
2.49574
2.51207
2.52625
2.54176
2.55573
2.56852
2.58305
2.5967
2.61011
2.62237
2.63325
2.64233
2.65326
2.659
2.6728
2.67935
2.68093
2.68464
2.68671
2.68904
2.68608
2.681
2.67343
2.66329
2.65052
2.6351
2.6166
2.59499
2.57031
2.54257
2.51187
2.47831
2.44198
2.40317
2.3621
2.31899
2.27409
2.22765
2.17986
2.13093
2.08141
2.03147
1.98093
1.93075
1.88069
1.83083
1.7814
1.73263
1.6847
1.63771
1.59153
1.54566
1.50085
1.4574
1.41543
1.3747
1.33508
1.2968
1.26002
1.22469
1.19069
1.15805
1.12679
1.09688
1.06826
1.04093
1.01483
0.989908
0.966111
0.94338
0.921589
0.900835
0.880506
0.861994
0.84134
0.826728
0.786294
0.0496441
0.0971549
0.126334
0.148307
0.167036
0.183965
0.19983
0.215146
0.230367
0.245936
0.262217
0.279435
0.29781
0.317643
0.339373
0.363239
0.388406
0.414215
0.440615
0.467908
0.49658
0.527238
0.560447
0.595606
0.632332
0.6704
0.709665
0.749978
0.791213
0.833253
0.875985
0.919289
0.963052
1.00716
1.0515
1.09599
1.14055
1.18509
1.22958
1.27395
1.31817
1.36221
1.40605
1.44966
1.49303
1.53616
1.57903
1.62164
1.66398
1.70606
1.74786
1.78938
1.83062
1.87157
1.91222
1.95255
1.99257
2.03225
2.07157
2.11051
2.14906
2.18719
2.22488
2.26209
2.2988
2.33498
2.3706
2.40563
2.44004
2.4738
2.50689
2.53927
2.57091
2.60179
2.6319
2.66121
2.68971
2.7174
2.74424
2.77026
2.79543
2.81975
2.84325
2.86595
2.8879
2.90917
2.92992
2.95002
2.96957
2.98866
3.0074
3.02583
3.04383
3.06169
3.07912
3.09642
3.11338
3.13012
3.14652
3.16259
3.17837
3.1938
3.20901
3.22415
3.23894
3.25337
3.26784
3.28149
3.2955
3.30942
3.3226
3.33533
3.3471
3.35802
3.36845
3.37878
3.38714
3.39579
3.40156
3.40382
3.4054
3.4057
3.40404
3.39908
3.39125
3.38034
3.36619
3.34861
3.32749
3.30261
3.27394
3.24146
3.20523
3.16533
3.1219
3.07513
3.02528
2.97259
2.91735
2.85984
2.80033
2.7391
2.67642
2.61285
2.54905
2.48518
2.42156
2.35818
2.2952
2.23284
2.17135
2.11091
2.05169
1.9937
1.93693
1.88159
1.82785
1.77582
1.72526
1.67581
1.62797
1.58192
1.53764
1.49487
1.45373
1.41429
1.37647
1.34024
1.30558
1.27245
1.24079
1.21053
1.18163
1.15398
1.12762
1.10223
1.07858
1.05461
1.03678
1.00437
0.0745609
0.132183
0.166573
0.192497
0.214622
0.234748
0.253839
0.272546
0.291392
0.31081
0.33115
0.352687
0.375635
0.400166
0.426416
0.454411
0.483947
0.51483
0.547029
0.580671
0.615978
0.653162
0.692255
0.733085
0.775464
0.819223
0.864208
0.910289
0.95736
1.0053
1.054
1.10334
1.15321
1.20349
1.25409
1.30491
1.35588
1.40693
1.458
1.50905
1.56003
1.6109
1.66165
1.71224
1.76266
1.81288
1.86291
1.91272
1.96231
2.01168
2.06081
2.10969
2.15833
2.2067
2.25481
2.30262
2.35014
2.39734
2.44421
2.49071
2.53683
2.58253
2.62779
2.67256
2.71682
2.76053
2.80364
2.84611
2.88792
2.929
2.96932
3.00884
3.04751
3.0853
3.12217
3.15809
3.19301
3.22691
3.25977
3.29155
3.32224
3.35184
3.38034
3.40776
3.43415
3.45955
3.48401
3.50749
3.53008
3.55184
3.57284
3.59309
3.61261
3.63149
3.64967
3.66727
3.68423
3.70062
3.71641
3.73164
3.74636
3.76058
3.77437
3.78781
3.80088
3.81361
3.826
3.83791
3.84973
3.86112
3.8719
3.88212
3.89153
3.9002
3.90829
3.91565
3.92164
3.92639
3.92856
3.92844
3.92733
3.92424
3.91874
3.91024
3.89863
3.88367
3.86514
3.84282
3.81654
3.78616
3.75158
3.7128
3.66985
3.62282
3.57188
3.51722
3.45911
3.39781
3.33363
3.26686
3.19784
3.12701
3.0548
2.98177
2.90847
2.83519
2.76218
2.68957
2.61754
2.54633
2.47616
2.40725
2.33974
2.27374
2.20932
2.14662
2.08571
2.02669
1.96951
1.91405
1.86043
1.80877
1.75903
1.71071
1.66417
1.61951
1.5766
1.5354
1.49595
1.45817
1.42203
1.38747
1.35444
1.32287
1.29278
1.26403
1.23706
1.21089
1.18996
1.16053
0.100517
0.166979
0.206969
0.237099
0.26273
0.285987
0.308016
0.32957
0.351223
0.373442
0.396615
0.421049
0.44697
0.474527
0.503811
0.53485
0.567608
0.602039
0.63814
0.675954
0.715549
0.756956
0.800145
0.845022
0.891471
0.939363
0.988576
1.03899
1.09049
1.14297
1.19629
1.25036
1.30505
1.36027
1.41592
1.47193
1.52822
1.58472
1.64136
1.6981
1.7549
1.8117
1.86847
1.92519
1.98183
2.03837
2.09478
2.15106
2.20719
2.26316
2.31895
2.37457
2.42999
2.48521
2.54021
2.59497
2.64949
2.70373
2.75768
2.81131
2.86458
2.91747
2.96994
3.02195
3.07344
3.12438
3.17472
3.2244
3.27336
3.32155
3.36892
3.4154
3.46093
3.50546
3.54893
3.59129
3.63247
3.67243
3.71112
3.74851
3.78455
3.81923
3.85252
3.88444
3.915
3.94422
3.9721
3.99867
4.02395
4.04801
4.07089
4.09261
4.11321
4.13275
4.15124
4.16873
4.18526
4.20086
4.21556
4.22943
4.2425
4.25482
4.26646
4.27749
4.28794
4.29785
4.30716
4.3159
4.32416
4.33187
4.33897
4.34544
4.35101
4.35569
4.35972
4.36291
4.36432
4.36408
4.3623
4.35881
4.3536
4.34625
4.33637
4.3236
4.30765
4.28827
4.26517
4.23815
4.20699
4.17154
4.13168
4.0874
4.0387
3.98568
3.92849
3.86733
3.80245
3.73414
3.66271
3.58855
3.51212
3.43388
3.35433
3.274
3.19337
3.11279
3.03252
2.95277
2.87374
2.79568
2.71882
2.64336
2.56947
2.49727
2.42689
2.35841
2.29193
2.2275
2.16512
2.10474
2.0464
1.99016
1.93599
1.88372
1.83342
1.78511
1.73856
1.69375
1.65079
1.60957
1.57008
1.53227
1.49611
1.46156
1.42863
1.39729
1.36783
1.33987
1.31633
1.28618
0.126071
0.200569
0.246047
0.280365
0.309439
0.335681
0.360386
0.384402
0.408358
0.432761
0.458028
0.484499
0.512431
0.542006
0.573342
0.606503
0.641515
0.678381
0.717106
0.757697
0.800158
0.844471
0.890588
0.938432
0.987909
1.03891
1.09133
1.14506
1.19999
1.256
1.31299
1.37085
1.42949
1.4888
1.5487
1.60911
1.66996
1.73117
1.79269
1.85444
1.91639
1.97848
2.04068
2.10295
2.16525
2.22756
2.28986
2.35213
2.41434
2.47649
2.53855
2.60052
2.66238
2.72412
2.78572
2.84716
2.90843
2.9695
3.03034
3.09092
3.15122
3.21118
3.27078
3.32995
3.38864
3.4468
3.50437
3.56127
3.61745
3.67282
3.72731
3.78085
3.83335
3.88475
3.93495
3.98388
4.03146
4.07763
4.1223
4.16543
4.20695
4.24683
4.28503
4.32152
4.35631
4.38938
4.42074
4.45039
4.47835
4.50467
4.52938
4.55251
4.57409
4.59418
4.61281
4.63004
4.64591
4.66048
4.67379
4.68592
4.69691
4.70684
4.71574
4.7237
4.7308
4.73709
4.74252
4.74706
4.7508
4.75384
4.75619
4.75789
4.7584
4.7576
4.75614
4.75368
4.74978
4.7445
4.7377
4.72922
4.7189
4.70643
4.69149
4.67375
4.6529
4.62866
4.60074
4.56889
4.53289
4.49255
4.44775
4.39843
4.34459
4.28629
4.22368
4.15694
4.08632
4.01214
3.93479
3.8547
3.77236
3.68827
3.60292
3.51681
3.4304
3.34405
3.25804
3.17264
3.08807
3.00457
2.92239
2.84172
2.76274
2.6856
2.61042
2.5373
2.46631
2.39752
2.33092
2.26651
2.2043
2.14429
2.08648
2.03079
1.97721
1.92575
1.8763
1.82881
1.78327
1.73946
1.6974
1.65708
1.61848
1.58157
1.5464
1.51299
1.48155
1.45199
1.42623
1.39575
0.150426
0.231939
0.282529
0.320821
0.353166
0.382209
0.40937
0.435572
0.461494
0.487678
0.514575
0.542553
0.57191
0.60287
0.635593
0.670184
0.706706
0.74519
0.785648
0.828078
0.872462
0.918766
0.966936
1.0169
1.06857
1.12186
1.17667
1.2329
1.29044
1.3492
1.40908
1.46998
1.53181
1.59448
1.65791
1.72202
1.78673
1.85199
1.91771
1.98384
2.05033
2.11711
2.18416
2.25142
2.31886
2.38645
2.45416
2.52196
2.58983
2.65775
2.72571
2.79369
2.86167
2.92964
2.99758
3.06547
3.13329
3.20101
3.26859
3.33602
3.40325
3.47023
3.53691
3.60325
3.66916
3.7346
3.79947
3.86371
3.92722
3.98993
4.05172
4.11252
4.17221
4.23069
4.28787
4.34364
4.3979
4.45055
4.50149
4.55065
4.59795
4.64331
4.68667
4.728
4.76727
4.80443
4.83949
4.87243
4.90325
4.93199
4.95867
4.98332
5.00597
5.02668
5.04548
5.06244
5.07761
5.09105
5.10282
5.113
5.12164
5.12883
5.1346
5.13901
5.14223
5.14441
5.14536
5.14497
5.14335
5.14091
5.13752
5.13313
5.12753
5.12082
5.11309
5.10423
5.09408
5.08258
5.06961
5.05501
5.03862
5.02016
4.99936
4.97592
4.94954
4.91992
4.88679
4.84985
4.80888
4.76366
4.71405
4.65995
4.60134
4.53827
4.47084
4.39925
4.32377
4.24477
4.16264
4.07784
3.99085
3.90217
3.81228
3.72166
3.63075
3.5399
3.44943
3.35961
3.2707
3.18294
3.09658
3.01181
2.92881
2.84775
2.76874
2.69189
2.61728
2.54496
2.47495
2.40725
2.34186
2.27878
2.21799
2.15943
2.10309
2.04896
1.997
1.94713
1.89932
1.85343
1.80943
1.76722
1.72671
1.68796
1.65101
1.61592
1.58285
1.55188
1.52422
1.49326
0.172913
0.260329
0.315471
0.357376
0.392729
0.424357
0.453772
0.481956
0.509626
0.537351
0.565607
0.594792
0.625234
0.657196
0.690875
0.726416
0.763912
0.803419
0.844962
0.888541
0.934139
0.981716
1.03122
1.08259
1.13574
1.1906
1.24707
1.30506
1.36449
1.42527
1.48731
1.55052
1.61482
1.68013
1.74637
1.81348
1.88136
1.94996
2.01922
2.08906
2.15943
2.23029
2.30157
2.37323
2.44524
2.51755
2.59014
2.66297
2.73603
2.80928
2.88272
2.95632
3.03006
3.10393
3.1779
3.25196
3.32608
3.40024
3.47439
3.54851
3.62255
3.69645
3.77017
3.84364
3.91679
3.98953
4.06178
4.13345
4.20443
4.27462
4.34391
4.41217
4.47928
4.54512
4.60956
4.67248
4.73373
4.7932
4.85077
4.90632
4.95975
5.01095
5.05985
5.10638
5.15048
5.19209
5.23118
5.26773
5.30173
5.33319
5.36212
5.38855
5.4125
5.43402
5.45317
5.46999
5.48455
5.49692
5.50716
5.51534
5.52153
5.52589
5.5283
5.52889
5.52778
5.52522
5.52108
5.51536
5.50819
5.49972
5.48995
5.4789
5.46654
5.45291
5.43807
5.42199
5.4046
5.38587
5.36569
5.34396
5.32051
5.29515
5.26763
5.23769
5.20505
5.16943
5.13054
5.08811
5.04187
4.99161
4.93715
4.87836
4.81521
4.74771
4.67599
4.60024
4.52076
4.43788
4.352
4.26358
4.17307
4.08095
3.98768
3.89372
3.79947
3.7053
3.61151
3.51842
3.42629
3.33536
3.24587
3.15801
3.07198
2.98792
2.90597
2.82625
2.74883
2.67375
2.60105
2.53074
2.46281
2.39726
2.33407
2.2732
2.21461
2.15829
2.10421
2.05233
2.00258
1.95487
1.90915
1.86535
1.8234
1.78324
1.74489
1.70845
1.67404
1.64182
1.61254
1.58095
0.192995
0.285188
0.344226
0.389296
0.427332
0.461295
0.492765
0.522763
0.55203
0.581153
0.610624
0.640857
0.672204
0.70495
0.739326
0.775503
0.813603
0.853705
0.895851
0.940053
0.9863
1.03456
1.08479
1.13693
1.19092
1.24668
1.30414
1.36322
1.42384
1.48594
1.54943
1.61423
1.68028
1.74751
1.81583
1.88519
1.95552
2.02675
2.09881
2.17166
2.24522
2.31945
2.3943
2.46971
2.54565
2.62207
2.69895
2.77626
2.85396
2.93203
3.01045
3.08921
3.16828
3.24764
3.32728
3.40717
3.48729
3.5676
3.64807
3.72866
3.80933
3.89001
3.97065
4.05117
4.13149
4.21153
4.29117
4.37032
4.44886
4.52666
4.60358
4.6795
4.75425
4.82769
4.89966
4.97001
5.03858
5.10522
5.16976
5.23208
5.29202
5.34947
5.40432
5.45645
5.50578
5.55224
5.59578
5.63634
5.6739
5.70844
5.73999
5.76853
5.79411
5.81675
5.83651
5.85344
5.86761
5.87908
5.88793
5.89424
5.89796
5.8993
5.89829
5.89504
5.88967
5.88227
5.87286
5.86153
5.84834
5.83343
5.81684
5.79865
5.77888
5.75763
5.73493
5.71084
5.68535
5.65846
5.63012
5.60028
5.56881
5.53559
5.50042
5.46309
5.42337
5.38099
5.33569
5.2872
5.23525
5.17963
5.12012
5.05662
4.98905
4.91745
4.84193
4.76266
4.67992
4.59403
4.50536
4.41432
4.32134
4.22686
4.13132
4.03514
3.93868
3.84232
3.74635
3.65109
3.55682
3.46378
3.37219
3.28225
3.19412
3.10799
3.02398
2.94221
2.86277
2.78569
2.71101
2.63875
2.56891
2.50149
2.43646
2.3738
2.31346
2.25542
2.19966
2.14613
2.0948
2.04558
1.99841
1.95323
1.91001
1.8687
1.82931
1.79181
1.75631
1.723
1.69234
1.66009
0.210292
0.306179
0.368422
0.416163
0.456517
0.492539
0.525853
0.557504
0.588245
0.618669
0.649272
0.680474
0.712634
0.746053
0.780976
0.817596
0.856054
0.896449
0.938842
0.983259
1.0297
1.07816
1.12859
1.18095
1.23519
1.29125
1.34907
1.40859
1.46975
1.53248
1.59672
1.66241
1.72948
1.79789
1.86755
1.93843
2.01045
2.08355
2.15768
2.23278
2.3088
2.38568
2.46338
2.54184
2.62103
2.70091
2.78144
2.86259
2.94433
3.02664
3.1095
3.19289
3.27678
3.36117
3.44603
3.53134
3.61706
3.70318
3.78964
3.87642
3.96345
4.05069
4.13805
4.22546
4.31284
4.40007
4.48706
4.57367
4.65978
4.74524
4.82989
4.91357
4.99612
5.07734
5.15707
5.23511
5.31127
5.38537
5.45723
5.52665
5.59348
5.65756
5.71873
5.77687
5.83186
5.88359
5.93198
5.97696
6.01849
6.05653
6.09108
6.12212
6.14969
6.17381
6.19451
6.21186
6.22592
6.23677
6.24448
6.24895
6.25045
6.24903
6.24478
6.23777
6.22811
6.21589
6.20118
6.18408
6.16467
6.14307
6.11936
6.09365
6.06602
6.03659
6.00544
5.97265
5.9383
5.90242
5.86504
5.82614
5.78571
5.74366
5.69988
5.65422
5.6065
5.55651
5.50402
5.4488
5.39059
5.32917
5.26436
5.19604
5.12414
5.0487
4.96978
4.88755
4.80223
4.71412
4.62352
4.5308
4.43636
4.34057
4.24384
4.14653
4.049
3.95158
3.85454
3.75822
3.66291
3.56882
3.47617
3.38513
3.29589
3.20859
3.1234
3.04044
2.95977
2.88146
2.80552
2.73199
2.66087
2.59218
2.52588
2.46195
2.40036
2.34107
2.28407
2.22931
2.17676
2.12635
2.07803
2.03176
1.98749
1.9452
1.90491
1.86661
1.83025
1.79601
1.76418
1.73132
0.224572
0.323157
0.387917
0.437825
0.480108
0.517888
0.552816
0.585945
0.618032
0.649666
0.681336
0.713457
0.746383
0.780415
0.815804
0.85275
0.891407
0.931889
0.97427
1.01859
1.06488
1.11313
1.16331
1.21542
1.2694
1.32521
1.38282
1.44218
1.50325
1.56597
1.63029
1.69618
1.76358
1.83245
1.90273
1.97438
2.04734
2.12157
2.19702
2.27363
2.35135
2.43015
2.50996
2.59076
2.67249
2.75512
2.83862
2.92296
3.0081
3.09403
3.18072
3.26817
3.35634
3.44522
3.5348
3.62504
3.71593
3.80742
3.89948
3.99207
4.08514
4.17861
4.27242
4.36648
4.4607
4.55495
4.64913
4.7431
4.8367
4.92977
5.02215
5.11363
5.20404
5.29315
5.38077
5.46666
5.55062
5.63241
5.71183
5.78865
5.86267
5.93369
6.00154
6.06604
6.12705
6.18442
6.23806
6.28785
6.33374
6.37567
6.4136
6.44754
6.47747
6.50342
6.52542
6.54353
6.5578
6.56832
6.57507
6.57814
6.57771
6.5738
6.5665
6.5559
6.54209
6.52517
6.50523
6.48235
6.45666
6.42826
6.39727
6.3638
6.328
6.28998
6.24989
6.20784
6.16398
6.11838
6.07116
6.02237
5.97206
5.92025
5.8669
5.81195
5.7553
5.69678
5.63626
5.57357
5.50848
5.44078
5.37034
5.29705
5.22084
5.14171
5.05973
4.975
4.88771
4.79807
4.70636
4.61287
4.51793
4.42186
4.32501
4.22769
4.13021
4.03285
3.93585
3.83959
3.74435
3.65031
3.55766
3.46656
3.37718
3.28966
3.2042
3.12091
3.03985
2.96108
2.88463
2.81052
2.73879
2.66944
2.60246
2.53782
2.47549
2.41543
2.35764
2.30207
2.2487
2.19746
2.14831
2.10122
2.05616
2.01312
1.9721
1.93312
1.89611
1.8611
1.82832
1.79494
0.235737
0.336132
0.402761
0.454336
0.49815
0.537365
0.57365
0.608058
0.64134
0.674074
0.706734
0.739717
0.773367
0.807972
0.843775
0.880976
0.919731
0.960161
1.00235
1.04636
1.09222
1.13995
1.18954
1.24099
1.29428
1.34939
1.40629
1.46496
1.52537
1.58749
1.6513
1.71677
1.78384
1.8525
1.92271
1.99443
2.06763
2.14226
2.2183
2.2957
2.37441
2.4544
2.53562
2.61804
2.70161
2.78632
2.87211
2.95897
3.04687
3.13578
3.22568
3.31656
3.40842
3.50123
3.59498
3.68963
3.78517
3.88155
3.97875
4.07671
4.17538
4.2747
4.37459
4.47495
4.57569
4.67669
4.77781
4.8789
4.97981
5.08034
5.18032
5.27952
5.37773
5.47472
5.57024
5.66404
5.75588
5.84548
5.93261
6.017
6.09841
6.17661
6.25138
6.32251
6.38983
6.45315
6.51234
6.56727
6.61785
6.664
6.70567
6.74282
6.77545
6.80357
6.8272
6.84638
6.86118
6.87165
6.87782
6.87983
6.87774
6.87162
6.86153
6.84756
6.82981
6.80836
6.78331
6.75477
6.72283
6.68763
6.64928
6.60794
6.56375
6.51688
6.46749
6.41576
6.36186
6.30595
6.24819
6.18874
6.12774
6.06529
6.00145
5.93625
5.86973
5.8018
5.73235
5.66125
5.58814
5.51321
5.43641
5.35765
5.27688
5.19406
5.10924
5.02245
4.93381
4.84346
4.75157
4.65836
4.56406
4.46894
4.37324
4.27722
4.18113
4.08518
3.98952
3.89457
3.80057
3.70769
3.61613
3.52602
3.43751
3.35073
3.26594
3.18322
3.10264
3.02423
2.94803
2.87407
2.80242
2.73307
2.66601
2.60123
2.53869
2.47837
2.42026
2.36432
2.31053
2.25883
2.20921
2.16162
2.11606
2.0725
2.03097
1.99147
1.95394
1.91834
1.88481
1.85104
0.243794
0.345223
0.413119
0.465885
0.510833
0.551151
0.588516
0.623976
0.658271
0.691962
0.725503
0.75927
0.793584
0.828714
0.864889
0.902296
0.941087
0.98138
1.02327
1.06681
1.11207
1.15906
1.2078
1.25831
1.31058
1.36462
1.42041
1.47796
1.53726
1.5983
1.66109
1.72561
1.79181
1.85967
1.92919
2.00036
2.07316
2.14756
2.22355
2.30107
2.38012
2.46064
2.54261
2.626
2.71077
2.79689
2.88434
2.97309
3.06312
3.15438
3.24685
3.34056
3.43551
3.53167
3.62901
3.72751
3.82715
3.92787
4.02967
4.13248
4.23626
4.34094
4.44643
4.55265
4.65948
4.76681
4.87448
4.98235
5.09023
5.19793
5.30523
5.41192
5.51773
5.62242
5.72572
5.82733
5.92698
6.02436
6.1192
6.21119
6.30005
6.38552
6.46733
6.54524
6.61902
6.68848
6.75343
6.81372
6.86922
6.91983
6.96548
7.00612
7.04171
7.07226
7.09778
7.11831
7.13391
7.14461
7.15051
7.15167
7.14825
7.14018
7.12756
7.11047
7.089
7.06322
7.03324
6.99915
6.96106
6.9191
6.8734
6.82413
6.77144
6.71553
6.65659
6.59483
6.53046
6.46373
6.39486
6.32409
6.25164
6.17777
6.10258
6.02622
5.94829
5.86935
5.78954
5.70891
5.62795
5.5463
5.46366
5.37997
5.29516
5.20918
5.12201
5.03366
4.94417
4.85361
4.76208
4.6697
4.57664
4.48308
4.38919
4.29518
4.20121
4.10745
4.01384
3.92141
3.82996
3.73957
3.65038
3.56251
3.47605
3.39114
3.308
3.22679
3.14757
3.07036
2.99521
2.92216
2.85129
2.78262
2.71613
2.6518
2.58961
2.52955
2.47161
2.41577
2.36199
2.31025
2.26051
2.21276
2.167
2.1232
2.08139
2.04157
2.00366
1.96764
1.93358
1.8996
0.248828
0.350631
0.419248
0.472758
0.518459
0.559546
0.597699
0.633961
0.669057
0.703528
0.737804
0.772243
0.807138
0.842734
0.879236
0.916814
0.955605
0.995722
1.03725
1.08027
1.12483
1.17097
1.21873
1.26812
1.31917
1.37192
1.42638
1.4825
1.54033
1.59991
1.66128
1.72449
1.78943
1.85611
1.92455
1.99474
2.06669
2.14037
2.21578
2.29291
2.37172
2.4522
2.53433
2.61809
2.70344
2.79037
2.87885
2.96887
3.0604
3.15341
3.24787
3.34387
3.44135
3.54028
3.64065
3.74241
3.84555
3.95
4.05579
4.16286
4.27115
4.38059
4.49111
4.60259
4.71495
4.82804
4.94173
5.05584
5.17019
5.28457
5.39875
5.51249
5.62551
5.73754
5.84828
5.95741
6.0646
6.16954
6.27189
6.37133
6.46752
6.56017
6.64896
6.73361
6.81387
6.88949
6.96025
7.02597
7.08649
7.14168
7.19143
7.23568
7.27439
7.30753
7.33511
7.35716
7.37373
7.38487
7.39064
7.39118
7.38666
7.37687
7.36194
7.34194
7.31693
7.28699
7.25222
7.2127
7.16855
7.11988
7.06684
7.00958
6.94831
6.88321
6.81451
6.74245
6.66728
6.5893
6.50885
6.4262
6.34156
6.25491
6.1669
6.07791
5.9889
5.89981
5.81057
5.72126
5.6324
5.54312
5.45381
5.36451
5.27519
5.1858
5.09629
5.00662
4.91673
4.8266
4.73623
4.64564
4.55489
4.46406
4.37323
4.28251
4.19198
4.10175
4.01168
3.92249
3.83421
3.74691
3.66071
3.57573
3.492
3.40962
3.32919
3.25056
3.17372
3.0987
3.02553
2.95421
2.88488
2.81759
2.75233
2.68908
2.62783
2.56857
2.51131
2.45604
2.40273
2.35135
2.3019
2.25435
2.2087
2.16496
2.12313
2.08321
2.04511
2.00888
1.9745
1.94051
0.251033
0.352603
0.421455
0.475303
0.521399
0.562933
0.601585
0.638392
0.674061
0.709109
0.743928
0.778895
0.814274
0.850273
0.887068
0.924802
0.963596
1.00355
1.04474
1.08725
1.13113
1.17644
1.22322
1.27148
1.32125
1.37261
1.42566
1.48033
1.53667
1.59471
1.65447
1.71595
1.7792
1.84427
1.9112
1.98
2.05068
2.12325
2.19772
2.27406
2.35229
2.43238
2.51433
2.5981
2.6837
2.77108
2.86025
2.95117
3.04384
3.13821
3.23428
3.33201
3.43142
3.5325
3.63524
3.73961
3.84558
3.95313
4.06226
4.17291
4.28501
4.39848
4.51326
4.62927
4.74639
4.8645
4.98345
5.10306
5.22315
5.34349
5.46385
5.58397
5.70356
5.82232
5.93991
6.056
6.17024
6.28226
6.39169
6.49816
6.60133
6.70082
6.7963
6.88745
6.97396
7.05556
7.13198
7.20301
7.26846
7.32815
7.38197
7.42982
7.47162
7.50736
7.53702
7.56062
7.57819
7.5898
7.5955
7.59552
7.59003
7.57864
7.56152
7.5387
7.51025
7.47623
7.43673
7.39183
7.34163
7.28625
7.22583
7.16053
7.09058
7.01617
6.93754
6.85497
6.76872
6.6788
6.58577
6.49015
6.39255
6.29398
6.19439
6.09411
5.99409
5.89365
5.79356
5.69416
5.59577
5.49837
5.40214
5.30712
5.21333
5.12071
5.02916
4.9386
4.84888
4.75987
4.67147
4.58358
4.49613
4.4091
4.32244
4.23617
4.15028
4.06481
3.97974
3.89532
3.81166
3.72885
3.64699
3.56615
3.4864
3.40774
3.33065
3.25513
3.18122
3.10893
3.0383
2.96934
2.90236
2.83725
2.77397
2.71251
2.65286
2.59497
2.53893
2.48473
2.43236
2.38179
2.33301
2.28603
2.24084
2.19747
2.15589
2.11609
2.07806
2.04186
2.00741
1.97362
0.250672
0.351667
0.420292
0.474051
0.520146
0.561759
0.600571
0.637617
0.673599
0.709019
0.744262
0.779697
0.815525
0.851921
0.889032
0.926974
0.965847
1.00573
1.0467
1.08881
1.13214
1.17675
1.22272
1.27001
1.31868
1.36878
1.42034
1.47339
1.52804
1.58438
1.64247
1.70235
1.76404
1.82761
1.89309
1.96053
2.02994
2.10134
2.17476
2.25022
2.3277
2.40722
2.48877
2.57233
2.65789
2.74544
2.83496
2.92642
3.01982
3.11512
3.21232
3.3114
3.41234
3.51515
3.61982
3.7263
3.83459
3.94461
4.05635
4.16979
4.28488
4.40156
4.51977
4.63942
4.7604
4.88259
5.00587
5.13005
5.25494
5.38034
5.50599
5.63161
5.75692
5.88159
6.00526
6.12757
6.24814
6.36657
6.48246
6.5954
6.70499
6.81083
6.91255
7.00978
7.10217
7.18941
7.27119
7.34725
7.41737
7.48134
7.53901
7.59026
7.63498
7.67314
7.70471
7.72969
7.74811
7.76001
7.76546
7.76488
7.75832
7.74524
7.7258
7.70004
7.668
7.62973
7.58531
7.53481
7.47833
7.41598
7.3479
7.27423
7.19508
7.11063
7.02121
6.92718
6.82893
6.72736
6.62257
6.51514
6.40598
6.29462
6.18206
6.06894
5.95594
5.84344
5.73201
5.62215
5.51427
5.40861
5.30539
5.20473
5.10666
5.01113
4.91803
4.82719
4.73837
4.65135
4.56586
4.48171
4.39869
4.31663
4.23538
4.15482
4.07486
3.99543
3.91648
3.8381
3.76034
3.68326
3.60694
3.53145
3.45684
3.38319
3.31072
3.23952
3.16964
3.10114
3.03402
2.96828
2.9042
2.84175
2.78092
2.72172
2.66414
2.60817
2.55394
2.50138
2.45047
2.40119
2.35354
2.30751
2.26314
2.22043
2.17938
2.14001
2.10234
2.06642
2.03215
1.99878
0.248333
0.348154
0.416086
0.469374
0.515161
0.556611
0.595401
0.632561
0.668776
0.704529
0.740168
0.775979
0.812187
0.848962
0.886429
0.924689
0.963821
1.00389
1.04494
1.08704
1.13021
1.17453
1.22001
1.26671
1.3147
1.36404
1.41479
1.46699
1.52074
1.57611
1.63318
1.69201
1.75266
1.8152
1.8797
1.94619
2.01472
2.08531
2.15795
2.23276
2.30973
2.38885
2.47013
2.55354
2.63907
2.72672
2.81646
2.90826
3.00212
3.098
3.19589
3.29576
3.39761
3.5014
3.60714
3.71479
3.82433
3.93573
4.04897
4.16402
4.28085
4.3994
4.5196
4.64139
4.76467
4.88937
5.01533
5.14243
5.27046
5.39923
5.52849
5.65797
5.78736
5.91633
6.04452
6.17153
6.29697
6.42039
6.54138
6.65948
6.77425
6.88527
6.99211
7.09437
7.19166
7.28361
7.36989
7.45019
7.52425
7.59183
7.65273
7.70679
7.7539
7.79399
7.827
7.85294
7.87181
7.88364
7.88846
7.88711
7.87926
7.86429
7.84234
7.81345
7.77764
7.73495
7.68539
7.62905
7.56599
7.49633
7.42018
7.33778
7.24946
7.15547
7.05604
6.95162
6.84287
6.72957
6.61252
6.4924
6.36988
6.24545
6.11987
5.99393
5.86843
5.74407
5.62157
5.50158
5.38463
5.27116
5.16146
5.05574
4.95404
4.85635
4.7625
4.67226
4.5853
4.50125
4.41974
4.34042
4.26295
4.18703
4.11236
4.0387
3.96585
3.89363
3.82195
3.75075
3.68005
3.60985
3.5402
3.47114
3.40272
3.33503
3.26819
3.20229
3.13741
3.0736
3.01091
2.94937
2.88912
2.8302
2.77264
2.71644
2.66161
2.60813