/*--------------------------------*- C++ -*----------------------------------*\
  =========                 |
  \\      /  F ield         | OpenFOAM: The Open Source CFD Toolbox
   \\    /   O peration     | Website:  https://openfoam.org
    \\  /    A nd           | Version:  11
     \\/     M anipulation  |
\*---------------------------------------------------------------------------*/
FoamFile
{
    format      ascii;
    class       volScalarField;
    location    "100";
    object      nut;
}
// * * * * * * * * * * * * * * * * * * * * * * * * * * * * * * * * * * * * * //

dimensions      [0 2 -1 0 0 0 0];

internalField   nonuniform List<scalar> 
12225
(
4.14924e-05
3.93417e-05
3.74815e-05
3.54351e-05
3.37808e-05
3.24256e-05
3.15037e-05
3.09147e-05
3.09201e-05
3.10966e-05
3.15799e-05
3.2104e-05
3.31744e-05
3.38524e-05
3.50785e-05
3.60652e-05
3.66878e-05
3.97248e-05
0.000332259
0.000215134
0.000179291
0.000157641
0.000146234
0.000138164
0.000132678
0.000131734
0.000129404
0.000130171
0.000128933
0.000129562
0.000128546
0.000128692
0.000127949
0.000127768
0.000127495
0.000126529
0.000668776
0.000450541
0.000355823
0.000309746
0.000275337
0.000251005
0.000231732
0.000217178
0.000202607
0.000192049
0.000182523
0.000175034
0.000169284
0.000163356
0.000160196
0.000155023
0.000153626
0.000148955
0.000801645
0.00069157
0.000572672
0.000499945
0.000449456
0.000411863
0.000380814
0.000355866
0.000333989
0.000314578
0.000298292
0.000281312
0.000270191
0.000255574
0.000247851
0.000235414
0.000229737
0.000219049
0.000839616
0.000810134
0.000740802
0.000676305
0.000624005
0.000581266
0.000545907
0.000514407
0.000489506
0.00046421
0.000445773
0.000423728
0.000409685
0.000390309
0.000379323
0.000362238
0.000353744
0.000337712
0.000850345
0.000843264
0.000819563
0.000786476
0.000750836
0.000715795
0.000685784
0.000656007
0.000632524
0.000607332
0.000588884
0.00056696
0.000552002
0.000532636
0.000520228
0.000502847
0.000492638
0.000475816
0.000851581
0.000851014
0.000843301
0.000833456
0.000817146
0.000796902
0.000777882
0.000756654
0.000738871
0.000719017
0.000703427
0.000685404
0.000671881
0.000655544
0.000643851
0.00062879
0.000619005
0.000603814
0.000851584
0.000851811
0.000850043
0.000847451
0.000841408
0.000833746
0.000824806
0.000813396
0.000802789
0.000790396
0.000779636
0.000767396
0.000757252
0.000745514
0.00073622
0.000724983
0.00071689
0.000705058
0.000851675
0.000851527
0.000851019
0.000850338
0.000848877
0.000846165
0.000843025
0.000838285
0.000833387
0.000827323
0.000821164
0.00081469
0.000808323
0.000801345
0.000795088
0.000788029
0.000782167
0.000774393
0.000851756
0.000851384
0.000851045
0.000850631
0.000850248
0.000849364
0.000848404
0.000846772
0.000844946
0.000842512
0.000839897
0.000836757
0.000833738
0.000830067
0.000826861
0.000822765
0.000819728
0.000815009
0.000851785
0.000851357
0.000851013
0.000850613
0.00085033
0.000849903
0.000849525
0.000848925
0.000848298
0.000847384
0.000846453
0.000845156
0.000843962
0.000842311
0.000840943
0.000838958
0.000837552
0.000835241
0.000851789
0.000851359
0.000850996
0.000850605
0.000850292
0.000849938
0.000849645
0.000849278
0.000848952
0.000848499
0.000848091
0.000847496
0.000846983
0.000846223
0.000845616
0.000844687
0.000844019
0.000842925
0.000851786
0.000851363
0.000850986
0.000850604
0.000850269
0.000849926
0.000849629
0.000849312
0.00084904
0.000848725
0.000848458
0.00084812
0.000847836
0.000847455
0.000847145
0.000846711
0.000846372
0.000845884
0.000851783
0.000851364
0.000850978
0.000850602
0.000850256
0.000849917
0.000849607
0.000849299
0.000849021
0.000848739
0.000848486
0.000848221
0.000847985
0.000847731
0.000847504
0.000847253
0.00084703
0.00084678
0.000851781
0.000851364
0.000850973
0.000850598
0.000850247
0.000849909
0.000849592
0.000849287
0.000849
0.000848723
0.000848463
0.000848211
0.000847975
0.000847745
0.000847528
0.000847317
0.000847118
0.000846923
0.00085178
0.000851363
0.000850969
0.000850594
0.000850239
0.000849901
0.000849581
0.000849275
0.000848985
0.000848708
0.000848445
0.000848193
0.000847953
0.000847724
0.000847506
0.000847297
0.000847099
0.000846909
0.000851779
0.000851363
0.000850967
0.000850591
0.000850234
0.000849895
0.000849573
0.000849266
0.000848974
0.000848696
0.000848431
0.000848178
0.000847936
0.000847706
0.000847486
0.000847276
0.000847075
0.000846883
0.000851779
0.000851362
0.000850965
0.000850589
0.000850231
0.000849891
0.000849568
0.00084926
0.000848967
0.000848687
0.000848421
0.000848167
0.000847924
0.000847692
0.000847471
0.000847259
0.000847057
0.000846864
0.000851779
0.000851362
0.000850965
0.000850588
0.00085023
0.00084989
0.000849566
0.000849257
0.000848963
0.000848683
0.000848416
0.000848161
0.000847918
0.000847685
0.000847463
0.00084725
0.000847047
0.000846852
0.000851779
0.000851362
0.000850966
0.000850589
0.000850232
0.000849892
0.000849568
0.00084926
0.000848967
0.000848687
0.00084842
0.000848165
0.000847921
0.000847688
0.000847465
0.000847252
0.000847048
0.000846853
0.000851779
0.000851363
0.000850967
0.000850592
0.000850235
0.000849897
0.000849574
0.000849268
0.000848974
0.000848696
0.000848426
0.000848172
0.000847923
0.000847688
0.000847456
0.000847238
0.00084702
0.000846815
0.000851778
0.000851366
0.000850968
0.000850599
0.00085024
0.000849908
0.000849581
0.000849275
0.000848966
0.000848673
0.000848367
0.000848075
0.00084776
0.000847461
0.000847129
0.000846819
0.000846466
0.000846146
0.000851773
0.000851376
0.000850971
0.000850615
0.000850241
0.00084989
0.000849479
0.000849055
0.000848531
0.000847981
0.000847305
0.000846609
0.000845773
0.000844947
0.000843965
0.000843042
0.000841934
0.000840959
0.000851768
0.000851415
0.000850964
0.000850548
0.000849861
0.000848967
0.000847612
0.000845978
0.000843909
0.000841642
0.000838963
0.000836225
0.000833131
0.000830132
0.000826787
0.00082371
0.000820221
0.000817222
0.000851859
0.000851379
0.000850196
0.000848243
0.000844471
0.000839356
0.000832769
0.000825665
0.000817972
0.000810024
0.000801637
0.000793651
0.000785364
0.000777746
0.000769793
0.00076276
0.000755196
0.000748882
0.000852108
0.000847667
0.000839903
0.000827144
0.000808715
0.000789647
0.000769988
0.000751422
0.000733327
0.000716917
0.00070097
0.000686819
0.000672884
0.000660732
0.000648457
0.000638032
0.000627065
0.000618149
0.000843241
0.000822505
0.000775192
0.000726454
0.000684908
0.000649852
0.000618482
0.00059203
0.000568414
0.000548336
0.000529737
0.000514034
0.000498821
0.000486086
0.000473297
0.00046281
0.000451754
0.000442947
0.000795683
0.00066824
0.000570633
0.000509904
0.000465618
0.000431186
0.000404167
0.000382492
0.000364231
0.00034909
0.000335986
0.000325097
0.000314573
0.000306289
0.00029804
0.000291448
0.000284389
0.000279043
0.000501314
0.000348357
0.000292675
0.000259181
0.000236329
0.000221179
0.000211631
0.000203861
0.000198576
0.000195083
0.000192235
0.000190378
0.000188598
0.000187453
0.000186185
0.00018549
0.000184577
0.000184166
7.27386e-05
7.02253e-05
6.79544e-05
6.56135e-05
6.3383e-05
6.1276e-05
5.94945e-05
5.79549e-05
5.67108e-05
5.57026e-05
5.49767e-05
5.44165e-05
5.41073e-05
5.38779e-05
5.3891e-05
5.39266e-05
5.40875e-05
5.4315e-05
3.75071e-06
4.92106e-05
7.35958e-05
9.49879e-05
0.000114176
0.000131608
0.00014777
0.000162943
0.000177881
0.000194156
0.000215215
0.000233774
0.000245271
0.000255037
0.000276843
0.000360127
0.000422308
0.000432434
0.000409281
0.000367235
0.000298414
4.81418e-05
5.10488e-05
5.31779e-05
5.55066e-05
5.77373e-05
5.99356e-05
6.21067e-05
6.42524e-05
6.63657e-05
6.84441e-05
7.04793e-05
7.24697e-05
7.44093e-05
7.62985e-05
7.81341e-05
7.99179e-05
8.16481e-05
8.33277e-05
8.4956e-05
8.65367e-05
8.80696e-05
8.95584e-05
9.10037e-05
9.24094e-05
9.37763e-05
9.51069e-05
9.64026e-05
9.76651e-05
9.88959e-05
0.000100096
0.000101267
0.00010241
0.000103525
0.000104613
0.000105675
0.000106711
0.000107721
0.000108706
0.000109665
0.000110598
0.000111507
0.000112389
0.000113246
0.000114077
0.000114883
0.000115662
0.000116417
0.000117146
0.00011785
0.000118527
0.000119177
0.000119799
0.000120396
0.000120965
0.000121509
0.000122026
0.000122518
0.000122983
0.000123424
0.000123837
0.000124231
0.000124617
0.000125058
0.000126085
0.000126394
0.000126137
0.000126604
0.000126925
0.000127348
0.00012783
0.000128564
0.000128149
0.000129448
0.000129327
0.000129357
0.000129748
0.000129701
0.000129974
0.000130262
0.000130267
0.000130025
0.000128811
0.000130682
0.000133259
0.000130097
0.000131342
0.000133821
0.000130477
0.000131893
0.000130812
0.0001325
0.000131566
0.000132989
0.000132006
0.000132817
0.000132384
0.000133474
0.000134353
0.00013273
0.00013401
0.00013351
0.000133502
0.000133151
0.000132829
0.000132423
0.000131961
0.000131445
0.000130867
0.000130214
0.000129487
0.000128687
0.000127807
0.000126853
0.00012586
0.000124761
0.000123588
0.000122339
0.000121016
0.00011963
0.000118201
0.000116665
0.000115022
0.000113577
0.000111579
0.000108954
0.000107552
0.000106396
0.000105252
0.000104084
0.000102903
0.000101705
0.000100499
9.93297e-05
9.81335e-05
9.68564e-05
9.56326e-05
9.4469e-05
9.32802e-05
9.20808e-05
9.08809e-05
8.96994e-05
8.85481e-05
8.74197e-05
8.63111e-05
8.52294e-05
8.41756e-05
8.31485e-05
8.21496e-05
8.11791e-05
8.02362e-05
7.93192e-05
7.84286e-05
7.75501e-05
7.67132e-05
7.58122e-05
7.50855e-05
7.39104e-05
7.32652e-05
7.09311e-05
8.50143e-06
7.40243e-05
0.000149684
0.000208804
0.00025274
0.000285207
0.000308889
0.000326467
0.000340256
0.00035179
0.000361468
0.000368757
0.000373631
0.000377615
0.000383065
0.000392011
0.000399411
0.00040032
0.000392758
0.000375698
0.00034928
0.000315203
0.000320048
0.000331087
0.00034374
0.000357192
0.000371321
0.000386197
0.000401795
0.00041803
0.000434797
0.000451998
0.000469513
0.000487235
0.00050505
0.000522875
0.000540616
0.000558208
0.00057558
0.000592689
0.000609487
0.000625946
0.00064203
0.000657723
0.000673064
0.000688058
0.000702704
0.000717013
0.000730989
0.000744646
0.000757987
0.000771029
0.000783772
0.000796231
0.000808405
0.000820304
0.000831924
0.000843271
0.00085434
0.000865132
0.000875639
0.000885859
0.000895783
0.000905405
0.000914718
0.000923714
0.000932386
0.000940731
0.000948746
0.000956436
0.000963787
0.000970745
0.000977313
0.000983479
0.000989254
0.000994633
0.000999636
0.00100427
0.00100858
0.00101259
0.00101638
0.00101999
0.00102352
0.00102695
0.00103007
0.00103038
0.00103165
0.0010343
0.00103623
0.00103845
0.00104026
0.00104192
0.00104174
0.00104391
0.00104322
0.0010451
0.00104705
0.00104954
0.00105363
0.00105817
0.00106334
0.00106983
0.00107733
0.00108659
0.0010921
0.00109517
0.00110746
0.00110315
0.00110419
0.00111191
0.00111519
0.00112514
0.00113176
0.00113804
0.0011363
0.00114765
0.00114932
0.00116087
0.00116452
0.00116118
0.00116835
0.00117323
0.00118032
0.00118445
0.00118819
0.00119124
0.0011936
0.00119524
0.00119625
0.00119618
0.00119513
0.00119306
0.00118997
0.00118583
0.00118077
0.0011747
0.00116769
0.00115977
0.00115099
0.00114138
0.0011311
0.0011201
0.00110811
0.00109621
0.00108358
0.00106596
0.0010466
0.00102644
0.00100594
0.000985294
0.000964661
0.000944161
0.000923796
0.000903666
0.000883868
0.000864338
0.000845252
0.000826971
0.000809167
0.000791631
0.000774528
0.000757942
0.000741866
0.000726175
0.000710901
0.000696101
0.000681742
0.000667814
0.000654318
0.000641246
0.000628557
0.000616268
0.000604237
0.000592647
0.000580992
0.000569902
0.000558323
0.000546095
0.000526806
0.000474805
1.53152e-05
0.000107008
0.000209575
0.000293283
0.000358245
0.000407399
0.000443619
0.000469398
0.00048704
0.000498978
0.000507764
0.00051486
0.000521398
0.00052859
0.000537636
0.000549237
0.000562554
0.000576001
0.0005882
0.00059861
0.000608104
0.000619822
0.000639251
0.000663153
0.000689502
0.000717549
0.000747702
0.000779692
0.000812811
0.000846769
0.000881366
0.000916437
0.000951803
0.00098727
0.00102264
0.00105781
0.00109267
0.00112713
0.0011611
0.00119452
0.00122735
0.00125956
0.00129111
0.00132202
0.00135228
0.00138191
0.00141092
0.00143931
0.0014671
0.00149431
0.00152096
0.00154705
0.0015726
0.00159762
0.00162213
0.00164612
0.00166961
0.0016926
0.00171509
0.00173706
0.00175853
0.00177948
0.00179989
0.00181977
0.00183909
0.00185785
0.00187602
0.0018936
0.00191057
0.00192692
0.00194263
0.00195768
0.00197206
0.00198577
0.00199881
0.00201119
0.00202291
0.00203399
0.00204446
0.00205435
0.00206366
0.00207241
0.00208053
0.00208788
0.00209425
0.00209934
0.00210486
0.0021104
0.00211531
0.00211991
0.00212396
0.00212757
0.0021304
0.00213401
0.00213681
0.00214117
0.00214578
0.00215129
0.00215781
0.00216489
0.00217273
0.00218136
0.00219032
0.00219905
0.00220584
0.00221269
0.00222129
0.00222314
0.00222997
0.00223935
0.00224732
0.00225808
0.00226665
0.00227431
0.00227971
0.00229157
0.00230094
0.00231238
0.0023187
0.00232114
0.00232848
0.00233518
0.00234192
0.00234691
0.00235067
0.00235306
0.002354
0.00235336
0.00235106
0.00234688
0.00234081
0.00233279
0.00232281
0.00231086
0.00229703
0.00228133
0.00226382
0.0022446
0.00222375
0.00220138
0.00217766
0.00215266
0.0021263
0.0020992
0.00207111
0.0020394
0.00200536
0.00197001
0.00193399
0.00189768
0.00186132
0.0018251
0.00178913
0.0017536
0.00171886
0.00168481
0.00165178
0.00162045
0.0015899
0.00155947
0.00152993
0.00150141
0.00147386
0.00144679
0.00142043
0.00139492
0.00137013
0.00134604
0.00132267
0.00129998
0.00127789
0.0012564
0.0012353
0.00121477
0.00119418
0.0011742
0.00115326
0.0011323
0.00110619
0.00103994
2.29864e-05
0.000138346
0.000263491
0.000367115
0.000449084
0.000512128
0.000559627
0.000594748
0.000620459
0.000639533
0.000654397
0.000667072
0.000679322
0.000692608
0.000708079
0.000726413
0.000747609
0.000771137
0.000796331
0.000822826
0.000850912
0.000881692
0.00091608
0.00095365
0.000993872
0.00103645
0.0010806
0.00112584
0.00117217
0.00121935
0.00126715
0.0013155
0.00136428
0.00141339
0.00146239
0.00151107
0.0015593
0.00160695
0.00165395
0.00170024
0.00174575
0.00179047
0.00183437
0.00187744
0.00191968
0.00196111
0.00200172
0.00204153
0.00208055
0.00211881
0.00215632
0.0021931
0.00222916
0.00226452
0.00229918
0.00233316
0.00236647
0.00239911
0.00243107
0.00246236
0.00249297
0.00252289
0.00255211
0.00258062
0.0026084
0.00263543
0.0026617
0.00268719
0.00271188
0.00273575
0.00275878
0.00278096
0.00280227
0.00282271
0.00284228
0.00286097
0.0028788
0.00289577
0.0029119
0.00292718
0.00294162
0.00295517
0.00296779
0.00297941
0.00298998
0.00299965
0.00300889
0.00301759
0.00302561
0.00303304
0.00303986
0.00304618
0.00305207
0.003058
0.0030638
0.00307016
0.0030768
0.00308396
0.00309163
0.00309966
0.00310807
0.0031167
0.00312525
0.00313335
0.00314072
0.00314807
0.00315531
0.00316085
0.00316845
0.00317711
0.00318574
0.00319511
0.00320363
0.00321171
0.00321931
0.0032299
0.00324062
0.00324939
0.00325492
0.00325885
0.003265
0.00327041
0.00327502
0.00327812
0.00327965
0.00327944
0.00327752
0.00327359
0.00326749
0.00325906
0.00324821
0.00323488
0.00321905
0.0032007
0.00317991
0.0031567
0.00313117
0.00310342
0.00307357
0.00304176
0.00300816
0.00297292
0.00293613
0.0028981
0.00285872
0.00281687
0.002773
0.00272779
0.00268179
0.0026354
0.00258891
0.00254255
0.00249647
0.00245091
0.00240614
0.00236221
0.0023193
0.00227781
0.00223751
0.00219865
0.00216147
0.00212579
0.00209159
0.00205759
0.00202457
0.00199276
0.00196186
0.00193178
0.00190264
0.00187435
0.00184677
0.00181986
0.00179343
0.00176756
0.00174178
0.00171644
0.00169041
0.00166359
0.00163847
0.00157059
3.09355e-05
0.000166014
0.00031221
0.000434139
0.000532008
0.000608502
0.000667556
0.000712807
0.000747552
0.000774779
0.000797147
0.000816962
0.000836171
0.000856341
0.000878649
0.000903839
0.000932212
0.000963698
0.000998046
0.00103504
0.00107467
0.0011171
0.00116244
0.00121054
0.00126111
0.00131382
0.00136827
0.00142413
0.00148118
0.00153922
0.00159802
0.00165724
0.00171663
0.00177591
0.00183489
0.00189348
0.00195155
0.00200899
0.00206571
0.00212165
0.00217674
0.00223096
0.00228427
0.00233667
0.00238813
0.00243867
0.00248829
0.00253701
0.00258482
0.00263176
0.00267784
0.00272307
0.00276747
0.00281105
0.00285384
0.00289583
0.00293704
0.00297747
0.00301712
0.00305599
0.00309407
0.00313137
0.00316785
0.00320351
0.00323834
0.00327231
0.0033054
0.00333759
0.00336885
0.00339916
0.00342851
0.00345687
0.00348422
0.00351055
0.00353584
0.0035601
0.00358332
0.00360549
0.00362662
0.00364668
0.00366568
0.00368357
0.00370031
0.00371588
0.00373028
0.00374364
0.0037561
0.00376768
0.00377838
0.00378825
0.00379736
0.00380579
0.00381366
0.00382118
0.00382842
0.00383562
0.0038428
0.00385005
0.00385738
0.00386474
0.00387209
0.00387933
0.00388629
0.00389285
0.00389906
0.00390513
0.00391098
0.00391645
0.00392255
0.00392917
0.00393615
0.00394306
0.00394958
0.00395672
0.00396454
0.00397274
0.0039793
0.00398436
0.0039885
0.00399209
0.00399579
0.00399873
0.00400062
0.00400106
0.00399984
0.00399673
0.00399172
0.00398452
0.00397495
0.00396284
0.00394809
0.0039306
0.00391034
0.00388729
0.00386149
0.00383298
0.00380186
0.00376822
0.00373221
0.003694
0.00365378
0.00361171
0.00356795
0.00352269
0.0034759
0.00342723
0.00337687
0.00332528
0.00327291
0.00322011
0.00316718
0.00311436
0.00306186
0.00300988
0.00295867
0.00290835
0.00285907
0.00281107
0.00276434
0.00271903
0.00267531
0.00263348
0.00259394
0.00255584
0.0025193
0.00248437
0.00245037
0.00241719
0.00238514
0.0023541
0.00232377
0.0022941
0.00226495
0.00223631
0.0022079
0.00217982
0.00215142
0.00212204
0.0020961
0.00203024
3.87408e-05
0.000191085
0.000356043
0.00049491
0.000607436
0.000696956
0.00076744
0.000822935
0.000867008
0.00090282
0.000933159
0.000960444
0.000986706
0.00101358
0.0010423
0.0010737
0.00110824
0.0011461
0.00118725
0.00123157
0.00127896
0.00132934
0.00138256
0.00143844
0.00149671
0.00155706
0.00161917
0.00168273
0.00174746
0.0018131
0.00187939
0.00194604
0.00201281
0.00207948
0.00214587
0.00221183
0.00227725
0.00234202
0.00240604
0.00246925
0.00253158
0.00259301
0.00265349
0.00271301
0.00277155
0.00282913
0.00288573
0.00294137
0.00299607
0.00304982
0.00310266
0.0031546
0.00320565
0.00325583
0.00330515
0.00335362
0.00340126
0.00344807
0.00349404
0.00353918
0.00358349
0.00362694
0.00366954
0.00371126
0.00375208
0.00379199
0.00383095
0.00386893
0.00390592
0.00394188
0.00397678
0.0040106
0.0040433
0.00407487
0.00410528
0.0041345
0.00416253
0.00418935
0.00421493
0.00423927
0.00426233
0.00428409
0.00430452
0.00432359
0.00434133
0.00435778
0.00437302
0.00438709
0.00440002
0.00441188
0.00442272
0.00443263
0.0044417
0.00445005
0.00445779
0.00446503
0.00447184
0.00447829
0.00448439
0.00449016
0.00449559
0.00450063
0.00450518
0.00450926
0.00451296
0.00451638
0.00451955
0.00452254
0.00452533
0.00452821
0.00453206
0.00453694
0.00454045
0.00454331
0.00454645
0.00454965
0.00455199
0.00455372
0.00455479
0.00455538
0.00455559
0.00455504
0.00455348
0.00455061
0.00454622
0.0045401
0.00453205
0.00452187
0.00450936
0.00449433
0.00447666
0.00445623
0.00443297
0.00440687
0.00437793
0.00434619
0.00431172
0.00427464
0.00423508
0.0041932
0.00414918
0.00410322
0.00405547
0.00400611
0.00395519
0.00390269
0.00384877
0.00379373
0.00373793
0.00368167
0.00362524
0.00356888
0.00351279
0.0034572
0.00340232
0.0033483
0.00329529
0.00324345
0.00319285
0.00314363
0.0030959
0.00304986
0.00300573
0.00296378
0.00292412
0.00288665
0.00285099
0.00281684
0.0027841
0.00275221
0.0027209
0.00269024
0.00266004
0.0026303
0.00260085
0.00257171
0.00254248
0.00251253
0.00248554
0.00242703
4.61677e-05
0.000213268
0.000394682
0.00054898
0.000675055
0.000776894
0.000858407
0.000923914
0.000977172
0.00102147
0.00105967
0.00109424
0.00112726
0.00116041
0.00119498
0.0012319
0.00127175
0.00131483
0.00136126
0.00141099
0.00146391
0.00151988
0.00157869
0.00164011
0.00170385
0.00176962
0.00183711
0.00190603
0.00197607
0.00204697
0.00211847
0.0021903
0.00226226
0.00233413
0.00240574
0.00247695
0.00254763
0.00261767
0.00268699
0.0027555
0.00282317
0.00288993
0.00295576
0.00302064
0.00308456
0.0031475
0.00320947
0.00327047
0.00333053
0.00338964
0.00344782
0.0035051
0.00356149
0.00361699
0.00367164
0.00372543
0.00377838
0.00383049
0.00388177
0.00393221
0.00398181
0.00403055
0.00407843
0.00412542
0.0041715
0.00421664
0.00426082
0.004304
0.00434614
0.00438721
0.00442717
0.00446598
0.0045036
0.00453999
0.00457512
0.00460895
0.00464144
0.00467257
0.0047023
0.00473059
0.00475742
0.00478274
0.00480654
0.00482877
0.00484946
0.0048686
0.00488625
0.00490242
0.00491717
0.00493053
0.00494258
0.00495336
0.00496297
0.00497147
0.00497897
0.00498553
0.00499125
0.00499617
0.00500033
0.00500376
0.00500649
0.00500854
0.00500983
0.00501047
0.00501062
0.00501024
0.0050095
0.00500875
0.00500774
0.00500643
0.00500548
0.00500444
0.00500279
0.00500084
0.00499875
0.00499651
0.00499387
0.00499087
0.0049875
0.00498377
0.00497965
0.00497492
0.00496938
0.0049628
0.00495497
0.00494567
0.00493469
0.00492181
0.00490681
0.0048895
0.00486971
0.00484733
0.00482224
0.00479441
0.00476379
0.00473043
0.00469438
0.00465573
0.00461459
0.00457113
0.00452549
0.00447787
0.00442842
0.0043773
0.00432466
0.00427057
0.0042152
0.00415879
0.00410163
0.00404397
0.00398609
0.00392821
0.00387055
0.00381333
0.00375675
0.00370097
0.00364614
0.0035924
0.00353983
0.00348856
0.00343869
0.00339039
0.0033438
0.00329909
0.00325664
0.00321709
0.00318009
0.00314522
0.00311214
0.00308037
0.0030496
0.00301946
0.00298957
0.00296006
0.00293082
0.00290182
0.00287288
0.00284352
0.00281611
0.00276533
5.3018e-05
0.000232381
0.000427886
0.000595941
0.000734406
0.000847765
0.00093977
0.00101491
0.00107705
0.00112957
0.00117536
0.00121691
0.00125633
0.00129532
0.00133522
0.00137702
0.00142139
0.00146874
0.00151926
0.00157298
0.00162983
0.00168964
0.00175223
0.00181733
0.00188468
0.00195398
0.00202494
0.00209727
0.00217069
0.00224494
0.00231976
0.00239493
0.00247023
0.00254547
0.0026205
0.00269517
0.00276936
0.00284296
0.00291589
0.00298807
0.00305945
0.00312999
0.00319964
0.00326839
0.00333622
0.00340311
0.00346908
0.00353413
0.00359826
0.00366149
0.00372383
0.0037853
0.00384592
0.0039057
0.00396465
0.0040228
0.00408014
0.00413669
0.00419244
0.0042474
0.00430155
0.0043549
0.00440741
0.00445907
0.00450985
0.00455972
0.00460864
0.00465657
0.00470348
0.0047493
0.00479399
0.0048375
0.00487977
0.00492076
0.00496039
0.00499863
0.00503542
0.0050707
0.00510442
0.00513654
0.005167
0.00519576
0.00522278
0.00524802
0.00527147
0.00529311
0.00531296
0.00533103
0.00534735
0.00536195
0.00537488
0.00538619
0.00539594
0.00540419
0.00541102
0.00541649
0.00542068
0.00542365
0.00542544
0.00542609
0.00542561
0.00542423
0.00542159
0.00541803
0.005414
0.00540965
0.00540436
0.00539852
0.00539211
0.00538535
0.00537841
0.00537118
0.00536355
0.0053556
0.00534746
0.00533917
0.00533071
0.00532209
0.00531333
0.00530443
0.00529532
0.00528588
0.00527596
0.00526536
0.00525389
0.00524135
0.00522752
0.00521216
0.00519505
0.00517598
0.00515474
0.00513118
0.00510517
0.00507663
0.0050455
0.0050118
0.00497554
0.00493679
0.00489565
0.00485222
0.00480666
0.0047591
0.00470972
0.00465866
0.00460609
0.00455214
0.00449696
0.00444078
0.00438382
0.00432633
0.00426853
0.00421066
0.00415293
0.00409555
0.00403874
0.00398265
0.00392744
0.00387322
0.00382008
0.00376815
0.00371755
0.0036684
0.00362082
0.00357494
0.00353102
0.00348979
0.00345189
0.00341664
0.00338352
0.00335204
0.00332184
0.00329259
0.00326396
0.00323564
0.00320747
0.00317944
0.00315148
0.00312336
0.00309629
0.00305227
5.9134e-05
0.000248353
0.000455594
0.000635631
0.000785239
0.000909187
0.00101101
0.00109527
0.0011659
0.00122628
0.00127933
0.00132753
0.00137298
0.00141739
0.00146213
0.00150823
0.00155642
0.0016072
0.00166082
0.00171738
0.00177685
0.00183911
0.00190398
0.00197122
0.00204059
0.0021118
0.0021846
0.0022587
0.00233385
0.00240979
0.00248631
0.00256318
0.00264022
0.00271725
0.00279411
0.00287068
0.00294684
0.00302248
0.00309754
0.00317192
0.00324559
0.00331848
0.00339058
0.00346185
0.00353228
0.00360187
0.0036706
0.00373848
0.00380553
0.00387175
0.00393716
0.00400179
0.00406564
0.00412873
0.00419109
0.00425272
0.00431364
0.00437385
0.00443336
0.00449215
0.00455024
0.00460759
0.0046642
0.00472004
0.00477507
0.00482927
0.00488258
0.00493496
0.00498635
0.00503669
0.00508593
0.00513398
0.00518079
0.00522627
0.00527036
0.00531298
0.00535405
0.0053935
0.00543126
0.00546725
0.00550141
0.00553367
0.00556397
0.00559226
0.0056185
0.00564267
0.00566474
0.00568471
0.00570259
0.0057184
0.00573217
0.00574392
0.00575371
0.0057616
0.00576763
0.00577188
0.00577441
0.00577529
0.00577456
0.00577229
0.00576826
0.00576272
0.00575617
0.00574872
0.00574044
0.00573082
0.00572018
0.00570866
0.00569636
0.00568344
0.00567003
0.00565616
0.00564188
0.00562727
0.00561246
0.00559755
0.0055826
0.00556769
0.00555286
0.00553815
0.00552352
0.00550892
0.00549424
0.00547934
0.00546405
0.00544818
0.00543153
0.00541385
0.0053949
0.00537444
0.00535223
0.00532811
0.0053019
0.00527348
0.00524277
0.00520973
0.00517438
0.00513673
0.00509682
0.00505475
0.0050106
0.0049645
0.00491659
0.00486701
0.00481591
0.00476346
0.00470979
0.0046551
0.00459958
0.00454347
0.00448696
0.00443028
0.00437363
0.00431723
0.00426131
0.00420604
0.00415155
0.00409793
0.0040453
0.00399377
0.00394348
0.00389455
0.00384708
0.00380118
0.00375705
0.00371521
0.00367695
0.00364174
0.00360888
0.00357787
0.00354833
0.00351993
0.00349241
0.00346551
0.00343904
0.00341253
0.003386
0.00335942
0.00333326
0.00329486
6.44066e-05
0.000261213
0.000477881
0.000668055
0.000827449
0.000960906
0.00107175
0.00116449
0.00124305
0.00131083
0.00137071
0.00142515
0.00147621
0.00152561
0.00157471
0.00162456
0.00167596
0.00172943
0.0017853
0.00184372
0.00190473
0.00196825
0.00203413
0.00210219
0.00217219
0.00224391
0.0023171
0.00239151
0.00246691
0.00254309
0.00261982
0.00269693
0.00277424
0.00285158
0.00292883
0.00300585
0.00308255
0.00315882
0.0032346
0.00330981
0.0033844
0.00345832
0.00353155
0.00360406
0.00367583
0.00374687
0.00381717
0.00388673
0.00395556
0.00402369
0.00409112
0.00415788
0.004224
0.00428949
0.00435437
0.00441866
0.00448238
0.00454552
0.00460809
0.00467009
0.00473152
0.00479236
0.00485259
0.00491218
0.00497109
0.00502929
0.00508672
0.00514332
0.00519903
0.00525377
0.00530747
0.00536004
0.00541139
0.00546143
0.00551005
0.00555718
0.00560269
0.0056465
0.0056885
0.00572861
0.00576671
0.00580273
0.00583659
0.0058682
0.0058975
0.00592445
0.005949
0.00597112
0.0059908
0.00600804
0.00602285
0.00603524
0.00604525
0.00605292
0.00605831
0.00606147
0.00606246
0.00606138
0.00605827
0.00605285
0.00604546
0.00603652
0.00602622
0.00601448
0.00600109
0.00598621
0.00597
0.00595258
0.0059341
0.00591472
0.00589457
0.00587379
0.00585248
0.00583079
0.00580888
0.0057869
0.00576499
0.00574328
0.00572187
0.00570084
0.00568024
0.00566007
0.00564027
0.00562077
0.00560144
0.00558211
0.00556258
0.00554264
0.005522
0.00550039
0.00547758
0.00545335
0.0054275
0.00539986
0.00537028
0.00533873
0.00530517
0.00526958
0.00523193
0.00519226
0.00515063
0.00510711
0.00506182
0.00501486
0.00496638
0.00491654
0.00486545
0.00481328
0.00476023
0.00470649
0.00465225
0.00459771
0.00454307
0.00448855
0.00443443
0.00438087
0.00432798
0.00427583
0.00422454
0.00417425
0.0041251
0.00407723
0.00403072
0.00398568
0.00394228
0.00390097
0.00386311
0.00382842
0.00379614
0.00376579
0.003737
0.00370947
0.00368298
0.00365731
0.0036323
0.00360766
0.00358281
0.00355788
0.00353299
0.00349925
6.87673e-05
0.000271057
0.000494911
0.0006933
0.000861007
0.00100265
0.00112166
0.00122209
0.0013079
0.00138244
0.00144858
0.00150871
0.00156488
0.00161875
0.00167168
0.00172473
0.00177871
0.00183419
0.00189154
0.00195097
0.00201256
0.0020763
0.00214209
0.00220977
0.00227918
0.00235012
0.00242237
0.00249574
0.00257003
0.00264504
0.0027206
0.00279654
0.00287271
0.00294896
0.00302518
0.00310126
0.0031771
0.00325262
0.00332774
0.00340241
0.00347657
0.00355019
0.00362324
0.00369569
0.00376755
0.0038388
0.00390945
0.00397951
0.00404899
0.00411791
0.00418629
0.00425417
0.00432157
0.00438852
0.00445505
0.00452116
0.00458689
0.00465223
0.0047172
0.0047818
0.00484601
0.00490984
0.00497325
0.00503621
0.00509868
0.00516063
0.00522197
0.00528266
0.0053426
0.00540172
0.00545992
0.00551709
0.00557312
0.00562791
0.00568132
0.00573323
0.00578352
0.00583205
0.00587869
0.00592333
0.00596583
0.00600608
0.00604397
0.00607939
0.00611226
0.00614248
0.00617
0.00619476
0.00621672
0.00623586
0.00625217
0.00626564
0.00627631
0.00628419
0.00628932
0.00629178
0.00629161
0.0062889
0.00628356
0.00627566
0.00626551
0.00625341
0.0062393
0.00622313
0.006205
0.00618501
0.00616331
0.00614006
0.00611541
0.00608954
0.00606263
0.00603486
0.0060064
0.00597745
0.00594821
0.00591889
0.0058897
0.00586082
0.00583244
0.00580471
0.00577775
0.00575163
0.00572638
0.00570197
0.00567834
0.00565533
0.00563277
0.00561055
0.00558828
0.00556566
0.00554245
0.00551844
0.00549336
0.00546699
0.00543909
0.00540966
0.00537861
0.00534584
0.00531128
0.0052749
0.00523669
0.00519668
0.00515494
0.00511155
0.00506663
0.00502034
0.00497274
0.00492396
0.00487424
0.00482372
0.00477256
0.00472096
0.00466911
0.00461722
0.00456565
0.00451457
0.00446402
0.00441406
0.00436482
0.00431644
0.00426912
0.00422299
0.00417814
0.00413467
0.00409275
0.00405287
0.00401625
0.00398256
0.00395118
0.00392168
0.00389374
0.00386712
0.00384161
0.00381706
0.00379332
0.00377019
0.00374711
0.0037238
0.00370032
0.00367049
7.21898e-05
0.00027806
0.000507004
0.000711758
0.000886373
0.00103484
0.00116069
0.00126774
0.00135985
0.00144031
0.00151191
0.00157701
0.00163759
0.00169527
0.00175138
0.00180697
0.00186285
0.00191961
0.00197767
0.00203726
0.00209853
0.00216151
0.00222614
0.00229234
0.00235998
0.00242889
0.00249892
0.0025699
0.00264171
0.00271418
0.00278718
0.00286058
0.00293421
0.00300797
0.00308175
0.00315547
0.00322905
0.00330242
0.00337549
0.00344823
0.00352058
0.00359253
0.00366404
0.00373512
0.00380574
0.00387593
0.00394569
0.00401504
0.00408399
0.00415255
0.00422077
0.0042887
0.00435638
0.00442384
0.00449112
0.00455823
0.00462519
0.00469201
0.00475872
0.00482531
0.00489178
0.00495813
0.00502432
0.00509033
0.0051561
0.0052216
0.00528674
0.00535146
0.00541566
0.00547924
0.00554209
0.00560408
0.00566508
0.00572495
0.00578354
0.00584069
0.00589625
0.00595005
0.00600193
0.00605173
0.00609928
0.00614444
0.00618707
0.00622701