/*--------------------------------*- C++ -*----------------------------------*\
  =========                 |
  \\      /  F ield         | OpenFOAM: The Open Source CFD Toolbox
   \\    /   O peration     | Website:  https://openfoam.org
    \\  /    A nd           | Version:  11
     \\/     M anipulation  |
\*---------------------------------------------------------------------------*/
FoamFile
{
    format      ascii;
    class       volScalarField;
    location    "100";
    object      p;
}
// * * * * * * * * * * * * * * * * * * * * * * * * * * * * * * * * * * * * * //

dimensions      [0 2 -2 0 0 0 0];

internalField   nonuniform List<scalar> 
12225
(
-2.19816
-4.38656
-5.48588
-5.80559
-5.98563
-6.15305
-6.28261
-6.37522
-6.44847
-6.51143
-6.56575
-6.61308
-6.65241
-6.68353
-6.70472
-6.70343
-6.69704
-6.546
-5.36166
-6.12983
-6.28967
-6.19645
-6.18271
-6.249
-6.32453
-6.38773
-6.44404
-6.49714
-6.54619
-6.58975
-6.62759
-6.65826
-6.68173
-6.68751
-6.69678
-6.64881
-5.76283
-5.74757
-5.87427
-5.95167
-6.04539
-6.16403
-6.26923
-6.35158
-6.42017
-6.48136
-6.53612
-6.58404
-6.62582
-6.6605
-6.68919
-6.70584
-6.73057
-6.74178
-5.6409
-5.58376
-5.82466
-5.98209
-6.08266
-6.18734
-6.28306
-6.36068
-6.42633
-6.48548
-6.53903
-6.58658
-6.62881
-6.66528
-6.69762
-6.72402
-6.75995
-6.80457
-5.63061
-5.65481
-5.88222
-6.02291
-6.10536
-6.19592
-6.28525
-6.36064
-6.42526
-6.4838
-6.5373
-6.58548
-6.62908
-6.66825
-6.70497
-6.74003
-6.78477
-6.84426
-5.68865
-5.73737
-5.91101
-6.03404
-6.11443
-6.20083
-6.28709
-6.3614
-6.42563
-6.48396
-6.53762
-6.58659
-6.63162
-6.67339
-6.71402
-6.75555
-6.80606
-6.87105
-5.74909
-5.79311
-5.92768
-6.04315
-6.12587
-6.20865
-6.29088
-6.36348
-6.42708
-6.48508
-6.53882
-6.58851
-6.63489
-6.67898
-6.72285
-6.76892
-6.82278
-6.88852
-5.80276
-5.84018
-5.94955
-6.05706
-6.1391
-6.21742
-6.29527
-6.36593
-6.42879
-6.48643
-6.54023
-6.59057
-6.63819
-6.68425
-6.73064
-6.77961
-6.83488
-6.8989
-5.85266
-5.88558
-5.97595
-6.07319
-6.15238
-6.22658
-6.30035
-6.36888
-6.43083
-6.48803
-6.54179
-6.59265
-6.64129
-6.68884
-6.73696
-6.78746
-6.84269
-6.9038
-5.89992
-5.92896
-6.00398
-6.09053
-6.16594
-6.23646
-6.30636
-6.37253
-6.43334
-6.48994
-6.54353
-6.59468
-6.64402
-6.69255
-6.74161
-6.79255
-6.84676
-6.90449
-5.94447
-5.96979
-6.03253
-6.10912
-6.18011
-6.24706
-6.31329
-6.37692
-6.43636
-6.49222
-6.54547
-6.59666
-6.64634
-6.69532
-6.74464
-6.7952
-6.84776
-6.90209
-5.98276
-6.00492
-6.05872
-6.12707
-6.19359
-6.25725
-6.32028
-6.38153
-6.43955
-6.49456
-6.54731
-6.59829
-6.64795
-6.6969
-6.74593
-6.79562
-6.84637
-6.89773
-6.01817
-6.03771
-6.0842
-6.14519
-6.20721
-6.26762
-6.32763
-6.38651
-6.44303
-6.49706
-6.54914
-6.5997
-6.64906
-6.69769
-6.74606
-6.79457
-6.84338
-6.89199
-6.05537
-6.0724
-6.11216
-6.16588
-6.22287
-6.27963
-6.33638
-6.39261
-6.44731
-6.5001
-6.55122
-6.60102
-6.64974
-6.69763
-6.74496
-6.79186
-6.8384
-6.88409
-6.09311
-6.10777
-6.1416
-6.1885
-6.24022
-6.29303
-6.34635
-6.3997
-6.45226
-6.50348
-6.55333
-6.60195
-6.64957
-6.69626
-6.74212
-6.78706
-6.83107
-6.87381
-6.12946
-6.14202
-6.17087
-6.21177
-6.25833
-6.30711
-6.35697
-6.40734
-6.45747
-6.50683
-6.55506
-6.60215
-6.64816
-6.69323
-6.7372
-6.77997
-6.82133
-6.86119
-6.16153
-6.17239
-6.19737
-6.2334
-6.27544
-6.32043
-6.36707
-6.41454
-6.46217
-6.50939
-6.55577
-6.60102
-6.64512
-6.68812
-6.72995
-6.77036
-6.80917
-6.84626
-6.18497
-6.19466
-6.21704
-6.24971
-6.28844
-6.3305
-6.37454
-6.4196
-6.46497
-6.51011
-6.55456
-6.59788
-6.63995
-6.68077
-6.72035
-6.75844
-6.79484
-6.82944
-6.19283
-6.20208
-6.22351
-6.25493
-6.29238
-6.33315
-6.37587
-6.41957
-6.46351
-6.50714
-6.55
-6.59165
-6.63192
-6.67078
-6.7083
-6.74426
-6.77852
-6.811
-6.17756
-6.18744
-6.2103
-6.24367
-6.28304
-6.32521
-6.36882
-6.41301
-6.45718
-6.50065
-6.5431
-6.58404
-6.62347
-6.66128
-6.69763
-6.73224
-6.76514
-6.79624
-6.15127
-6.16218
-6.18772
-6.22503
-6.26814
-6.31314
-6.3588
-6.40469
-6.44999
-6.49414
-6.53673
-6.57767
-6.61682
-6.65431
-6.69001
-6.72397
-6.75598
-6.78641
-6.11646
-6.12839
-6.15802
-6.20188
-6.25049
-6.29891
-6.34726
-6.39556
-6.44276
-6.48801
-6.53117
-6.57235
-6.61159
-6.64894
-6.68434
-6.71781
-6.74935
-6.77925
-6.0762
-6.08821
-6.12294
-6.17647
-6.23235
-6.28472
-6.33606
-6.38702
-6.43614
-6.4826
-6.52655
-6.5682
-6.60774
-6.64508
-6.68036
-6.71351
-6.7448
-6.7744
-6.03269
-6.04379
-6.08583
-6.15049
-6.213
-6.2701
-6.32615
-6.38047
-6.43126
-6.47857
-6.52313
-6.56523
-6.60494
-6.6423
-6.67736
-6.71033
-6.74134
-6.77076
-5.9859
-5.99152
-6.05446
-6.1329
-6.19513
-6.25377
-6.31535
-6.37419
-6.42719
-6.47565
-6.52102
-6.56366
-6.60359
-6.64093
-6.67586
-6.70864
-6.73946
-6.76878
-5.94268
-5.90646
-6.01627
-6.12752
-6.19006
-6.24565
-6.30825
-6.36849
-6.42219
-6.47127
-6.5173
-6.56045
-6.60065
-6.63809
-6.67305
-6.70583
-6.73666
-6.76592
-5.95696
-5.79813
-5.92729
-6.08162
-6.1721
-6.24376
-6.31302
-6.37439
-6.42765
-6.47629
-6.52186
-6.56448
-6.60403
-6.64084
-6.67519
-6.70742
-6.73782
-6.76679
-6.08018
-5.89991
-5.91436
-5.98668
-6.0754
-6.17496
-6.26599
-6.3402
-6.40234
-6.4578
-6.50842
-6.55454
-6.59661
-6.63522
-6.67082
-6.70396
-6.73515
-6.76525
-5.78757
-6.37874
-6.46788
-6.34386
-6.28982
-6.3173
-6.36464
-6.40833
-6.45032
-6.4928
-6.53458
-6.57425
-6.61151
-6.64637
-6.67883
-6.70914
-6.73765
-6.76634
-2.79825
-4.56167
-5.56661
-5.86604
-6.01549
-6.1594
-6.2738
-6.35522
-6.41988
-6.47703
-6.52853
-6.57489
-6.61688
-6.65525
-6.69042
-6.72229
-6.75088
-6.77458
-8.11835
-8.11638
-8.11454
-8.11646
-8.12022
-8.12484
-8.13038
-8.13643
-8.14246
-8.148
-8.15332
-8.15918
-8.16587
-8.17249
-8.17821
-8.18439
-8.1942
-8.20783
-8.22507
-8.24411
-8.25955
-8.27244
-8.29156
-8.31639
-8.3433
-8.3727
-8.40466
-8.43902
-8.47569
-8.51436
-8.55481
-8.5966
-8.6394
-8.68274
-8.72623
-8.76944
-8.81199
-8.85349
-8.89362
-8.9321
-8.96868
-9.00315
-9.03536
-9.06518
-9.09248
-9.11721
-9.13929
-9.15874
-9.17544
-9.18947
-9.20074
-9.20936
-9.21526
-9.21854
-9.2191
-9.21713
-9.21253
-9.20546
-9.19578
-9.18375
-9.16923
-9.15249
-9.13335
-9.11215
-9.08869
-9.06335
-9.03591
-9.00677
-8.97572
-8.94319
-8.90897
-8.87347
-8.83644
-8.79835
-8.75894
-8.71874
-8.67741
-8.63539
-8.59237
-8.54887
-8.50445
-8.45951
-8.41351
-8.3669
-8.31901
-8.2703
-8.22009
-8.16828
-8.11392
-8.0566
-7.99647
-7.93302
-7.86572
-7.79381
-7.71672
-7.63371
-7.54404
-7.44681
-7.34112
-7.22579
-7.0997
-6.96154
-6.80984
-6.64303
-6.45945
-6.25773
-6.0362
-5.79379
-5.52944
-5.2421
-4.93037
-4.59338
-4.2301
-3.84011
-3.4229
-2.97842
-2.50645
-2.00747
-1.48217
-0.931859
-0.357864
0.238039
0.853871
1.4871
2.13487
2.79389
3.46069
4.13161
4.80291
5.47086
6.1318
6.78222
7.4188
8.03851
8.63859
9.21665
9.77062
10.2988
10.8
11.2734
11.7187
12.1357
12.5251
12.8877
13.2247
13.5371
13.8257
14.0909
14.3337
14.555
14.7563
14.9387
15.1035
15.2521
15.3857
15.5055
15.6128
15.7086
15.794
15.8698
15.937
15.9964
16.0487
16.0947
16.135
16.1703
16.201
16.2278
16.2512
16.2718
16.2901
16.3068
16.3229
16.3395
16.3584
16.3824
16.4185
16.4738
16.5763
16.7146
-8.11693
-8.1157
-8.11444
-8.11635
-8.11966
-8.12309
-8.12653
-8.13004
-8.13323
-8.13595
-8.13843
-8.14136
-8.14476
-8.14841
-8.15235
-8.15816
-8.16602
-8.17439
-8.18302
-8.19162
-8.20184
-8.21964
-8.24442
-8.26858
-8.29415
-8.32243
-8.35359
-8.3875
-8.424
-8.46281
-8.50361
-8.54598
-8.58951
-8.63371
-8.67812
-8.72227
-8.76573
-8.8081
-8.84904
-8.88825
-8.92549
-8.96056
-8.9933
-9.02359
-9.05132
-9.07645
-9.0989
-9.11868
-9.13571
-9.15002
-9.16159
-9.17047
-9.17662
-9.18009
-9.18087
-9.17905
-9.17457
-9.16755
-9.15795
-9.14589
-9.13133
-9.11443
-9.09514
-9.07366
-9.04993
-9.02417
-8.99634
-8.96666
-8.9351
-8.90191
-8.86705
-8.83079
-8.79306
-8.75415
-8.71402
-8.67295
-8.63083
-8.58791
-8.54413
-8.49976
-8.45464
-8.40899
-8.36261
-8.31569
-8.26788
-8.2192
-8.16923
-8.11793
-8.06454
-8.00896
-7.95085
-7.88985
-7.8252
-7.75624
-7.68227
-7.6025
-7.51623
-7.4225
-7.32034
-7.20859
-7.08614
-6.95167
-6.80399
-6.64158
-6.46298
-6.26652
-6.05122
-5.81586
-5.55905
-5.27948
-4.97609
-4.64776
-4.29364
-3.91303
-3.50547
-3.0706
-2.60845
-2.11928
-1.60376
-1.06286
-0.497964
0.0893101
0.697116
1.32307
1.96441
2.61797
3.28037
3.94798
4.61712
5.28404
5.94505
6.59659
7.23527
7.85794
8.46177
9.04421
9.60312
10.1367
10.6437
11.1231
11.5745
11.9979
12.3934
12.7618
13.1038
13.4205
13.7134
13.983
14.2304
14.4565
14.6626
14.8497
15.0193
15.1725
15.3106
15.4348
15.5462
15.646
15.7351
15.8145
15.8851
15.9477
16.0031
16.052
16.095
16.1328
16.1659
16.195
16.2205
16.2431
16.2633
16.2819
16.2997
16.3179
16.3385
16.3639
16.3994
16.4503
16.5412
16.6548
-8.11015
-8.11091
-8.11143
-8.11397
-8.11701
-8.11938
-8.12099
-8.12199
-8.12246
-8.12251
-8.12249
-8.12282
-8.12368
-8.12506
-8.12737
-8.1316
-8.13822
-8.14655
-8.15613
-8.16658
-8.17822
-8.19297
-8.21211
-8.23415
-8.25935
-8.28792
-8.31967
-8.35423
-8.3913
-8.43043
-8.47126
-8.51332
-8.5562
-8.59945
-8.6427
-8.68555
-8.72765
-8.76867
-8.80833
-8.84637
-8.88258
-8.91677
-8.94878
-8.97849
-9.00578
-9.03059
-9.05283
-9.07247
-9.08945
-9.10378
-9.11541
-9.12437
-9.13062
-9.13421
-9.13512
-9.1334
-9.12902
-9.12206
-9.11252
-9.10046
-9.08589
-9.0689
-9.04952
-9.02784
-9.00391
-8.97784
-8.9497
-8.91961
-8.88763
-8.85392
-8.81855
-8.78168
-8.74339
-8.70383
-8.66311
-8.62138
-8.57868
-8.53515
-8.49085
-8.44592
-8.40036
-8.35428
-8.30767
-8.26056
-8.21279
-8.16428
-8.11485
-8.06422
-8.01202
-7.95787
-7.90176
-7.84317
-7.7813
-7.71566
-7.64539
-7.56984
-7.48809
-7.39929
-7.30229
-7.19606
-7.07937
-6.95096
-6.8096
-6.65378
-6.48221
-6.29335
-6.08621
-5.85942
-5.61174
-5.34163
-5.04813
-4.73002
-4.38655
-4.01687
-3.62052
-3.19691
-2.74616
-2.26843
-1.7643
-1.2346
-0.680635
-0.103839
0.493982
1.11063
1.74345
2.38942
3.04525
3.7074
4.37225
5.03607
5.69521
6.34601
6.98507
7.60916
8.21538
8.80111
9.36419
9.90279
10.4155
10.9016
11.3604
11.7918
12.196
12.5735
12.925
13.2514
13.5536
13.8324
14.0886
14.3232
14.5374
14.7324
14.9094
15.0697
15.2144
15.3449
15.4622
15.5675
15.6618
15.746
15.8211
15.888
15.9473
15.9998
16.0462
16.0871
16.1232
16.155
16.1832
16.2081
16.2306
16.2513
16.271
16.2911
16.3131
16.3395
16.3744
16.4208
16.4967
16.5728
-8.09514
-8.09917
-8.10307
-8.10739
-8.11115
-8.11361
-8.11481
-8.11494
-8.11418
-8.11277
-8.11113
-8.10971
-8.10891
-8.10898
-8.11037
-8.11367
-8.11937
-8.12747
-8.13782
-8.15023
-8.1647
-8.18163
-8.20147
-8.22422
-8.24996
-8.27866
-8.31018
-8.34426
-8.3806
-8.41883
-8.4586
-8.4995
-8.54117
-8.58319
-8.62521
-8.66684
-8.70775
-8.74763
-8.78619
-8.82321
-8.85845
-8.89175
-8.92294
-8.9519
-8.97851
-9.0027
-9.02439
-9.04354
-9.06007
-9.07399
-9.08526
-9.09388
-9.09982
-9.1031
-9.10372
-9.1017
-9.09703
-9.08977
-9.07991
-9.06752
-9.0526
-9.03525
-9.01547
-8.99338
-8.96901
-8.94248
-8.91384
-8.88323
-8.85073
-8.81647
-8.78056
-8.74315
-8.70434
-8.66428
-8.6231
-8.58094
-8.53789
-8.49407
-8.44959
-8.40455
-8.35899
-8.313
-8.26662
-8.21983
-8.17257
-8.12474
-8.07619
-8.02669
-7.97574
-7.92336
-7.86917
-7.81272
-7.75343
-7.69061
-7.62362
-7.55164
-7.47385
-7.38927
-7.29686
-7.19552
-7.08403
-6.96116
-6.82554
-6.67582
-6.51059
-6.32856
-6.12846
-5.90904
-5.66888
-5.40662
-5.12111
-4.81127
-4.4762
-4.11515
-3.7275
-3.31272
-2.87075
-2.40178
-1.90627
-1.385
-0.83917
-0.270139
0.320328
0.930111
1.55664
2.19699
2.84793
3.50602
4.16767
4.82915
5.4868
6.13695
6.77616
7.40116
8.00901
8.59708
9.16319
9.70558
10.2229
10.7143
11.1792
11.6173
12.0288
12.4138
12.773
13.1071
13.4168
13.7029
13.9662
14.2077
14.4286
14.63
14.8132
14.9793
15.1297
15.2655
15.3878
15.4978
15.5965
15.6849
15.7638
15.8342
15.8969
15.9525
16.0018
16.0455
16.0841
16.1183
16.1486
16.1755
16.1999
16.2222
16.2434
16.2646
16.2873
16.3134
16.3462
16.3862
16.4453
16.4887
-8.07247
-8.08017
-8.08872
-8.09592
-8.10132
-8.10478
-8.10653
-8.10695
-8.10634
-8.10503
-8.10343
-8.10203
-8.10129
-8.10162
-8.10347
-8.10727
-8.11339
-8.12196
-8.13305
-8.14663
-8.16274
-8.18147
-8.20288
-8.22699
-8.25382
-8.28328
-8.31523
-8.34941
-8.38557
-8.42336
-8.46245
-8.50247
-8.54307
-8.58389
-8.62458
-8.66482
-8.70431
-8.74277
-8.77994
-8.8156
-8.84955
-8.88162
-8.91166
-8.93955
-8.96516
-8.98843
-9.00925
-9.0276
-9.04339
-9.05662
-9.06722
-9.07521
-9.08054
-9.08323
-9.08325
-9.08064
-9.07537
-9.0675
-9.05702
-9.04399
-9.02842
-9.01039
-8.98992
-8.96712
-8.94202
-8.91474
-8.88536
-8.85399
-8.82074
-8.78574
-8.74911
-8.711
-8.67154
-8.6309
-8.58921
-8.54662
-8.50326
-8.45927
-8.41475
-8.36983
-8.32458
-8.27907
-8.23335
-8.18742
-8.14121
-8.09465
-8.0476
-7.99978
-7.95096
-7.90063
-7.84903
-7.79527
-7.73899
-7.67941
-7.61601
-7.54786
-7.47424
-7.39408
-7.30643
-7.21016
-7.10402
-6.9868
-6.85697
-6.71334
-6.55432
-6.37882
-6.18528
-5.97261
-5.7391
-5.48369
-5.20494
-4.902
-4.57371
-4.21954
-3.83857
-3.43046
-2.99488
-2.53209
-2.04239
-1.52666
-0.985877
-0.421462
0.164912
0.771093
1.39456
2.03243
2.68148
3.33832
3.99929
4.66074
5.31887
5.97009
6.6108
7.2378
7.84805
8.43901
9.00848
9.55474
10.0764
10.5725
11.0425
11.4858
11.9027
12.2932
12.6579
12.9974
13.3124
13.6036
13.8719
14.1184
14.344
14.5501
14.7378
14.9083
15.0628
15.2026
15.3287
15.4423
15.5444
15.6359
15.7179
15.791
15.8563
15.9143
15.9658
16.0115
16.052
16.0879
16.1198
16.1483
16.1739
16.1973
16.2193
16.2409
16.2634
16.288
16.3172
16.3498
16.3937
16.4109
-8.04586
-8.05728
-8.0712
-8.08193
-8.08964
-8.09484
-8.09797
-8.09952
-8.09996
-8.09968
-8.09916
-8.09884
-8.09922
-8.10075
-8.10385
-8.1089
-8.11622
-8.12597
-8.13827
-8.15314
-8.17063
-8.19072
-8.21343
-8.23871
-8.26649
-8.29664
-8.32899
-8.36327
-8.39922
-8.43654
-8.4749
-8.51399
-8.55348
-8.59304
-8.6324
-8.67123
-8.70929
-8.7463
-8.78205
-8.81633
-8.84894
-8.87973
-8.90854
-8.93527
-8.95978
-8.98201
-9.00186
-9.01927
-9.03417
-9.04653
-9.05631
-9.06348
-9.06801
-9.06991
-9.06913
-9.06572
-9.05963
-9.05093
-9.03959
-9.02568
-9.00921
-8.99025
-8.96884
-8.94507
-8.919
-8.89074
-8.86037
-8.82802
-8.7938
-8.75786
-8.72033
-8.68137
-8.64112
-8.59977
-8.55747
-8.51439
-8.47068
-8.42649
-8.38197
-8.33724
-8.2924
-8.24754
-8.2027
-8.15791
-8.11311
-8.06821
-8.0231
-7.97757
-7.93104
-7.8838
-7.83511
-7.78478
-7.73206
-7.67642
-7.61713
-7.55346
-7.4845
-7.40933
-7.32692
-7.23615
-7.1358
-7.02448
-6.90084
-6.76341
-6.6109
-6.44189
-6.25504
-6.0489
-5.82203
-5.57307
-5.30084
-5.00425
-4.68232
-4.33421
-3.95914
-3.55656
-3.12622
-2.66823
-2.18296
-1.67112
-1.13368
-0.571988
0.0122522
0.616888
1.23941
1.8769
2.52618
3.18378
3.84606
4.50926
5.16961
5.8234
6.46706
7.09733
7.7112
8.30609
8.87983
9.43058
9.95694
10.4578
10.9326
11.3808
11.8024
12.1975
12.5667
12.9105
13.2296
13.5248
13.7971
14.0473
14.2766
14.4862
14.6773
14.8511
15.0088
15.1517
15.2808
15.3972
15.502
15.5961
15.6805
15.7559
15.8232
15.8832
15.9364
15.9837
16.0257
16.063
16.0961
16.1255
16.152
16.176
16.1983
16.2197
16.2412
16.2636
16.2884
16.3134
16.344
16.3404
-8.0196
-8.03432
-8.05335
-8.06755
-8.07777
-8.0851
-8.0901
-8.09334
-8.09538
-8.09669
-8.09778
-8.0991
-8.10115
-8.10434
-8.10911
-8.11576
-8.12462
-8.13583
-8.14956
-8.16581
-8.18463
-8.20598
-8.22983
-8.25605
-8.28456
-8.31518
-8.34771
-8.38192
-8.41756
-8.45433
-8.49196
-8.53014
-8.56858
-8.607
-8.64512
-8.68266
-8.71939
-8.75506
-8.78947
-8.82242
-8.85374
-8.88328
-8.91088
-8.93644
-8.95983
-8.98098
-8.99978
-9.01618
-9.0301
-9.04151
-9.05033
-9.05657
-9.06016
-9.06111
-9.05937
-9.05497
-9.04789
-9.03815
-9.02575
-9.01075
-8.99315
-8.97304
-8.95046
-8.92549
-8.89821
-8.86874
-8.83716
-8.80362
-8.76824
-8.73117
-8.69256
-8.6526
-8.61143
-8.56927
-8.52628
-8.48265
-8.43856
-8.39418
-8.34967
-8.30518
-8.26082
-8.21671
-8.1729
-8.12942
-8.08623
-8.04326
-8.0004
-7.95734
-7.91391
-7.86968
-7.82463
-7.77817
-7.72955
-7.67835
-7.62373
-7.56503
-7.50125
-7.43155
-7.35484
-7.26996
-7.17573
-7.07059
-6.95331
-6.82226
-6.67634
-6.51384
-6.33362
-6.13393
-5.91361
-5.67099
-5.40511
-5.11459
-4.79867
-4.45612
-4.08634
-3.68858
-3.26276
-2.80875
-2.32701
-1.81803
-1.28286
-0.722724
-0.139415
0.464941
1.0878
1.72622
2.37702
3.03662
3.70142
4.36751
5.03116
5.68854
6.33614
6.9706
7.58896
8.18854
8.76711
9.32279
9.85407
10.3599
10.8394
11.2922
11.7183
12.1177
12.4909
12.8385
13.1612
13.4598
13.7353
13.9886
14.2209
14.4334
14.6273
14.8038
14.9641
15.1094
15.2409
15.3596
15.4665
15.5628
15.6491
15.7264
15.7955
15.8572
15.9119
15.9606
16.0038
16.0421
16.0761
16.1063
16.1333
16.1575
16.1797
16.2004
16.2204
16.2401
16.2603
16.2777
16.2969
16.2764
-7.99725
-8.01468
-8.0379
-8.05507
-8.0676
-8.07707
-8.08408
-8.0892
-8.09307
-8.09621
-8.09914
-8.10232
-8.10622
-8.11123
-8.11777
-8.12612
-8.13656
-8.14925
-8.16434
-8.18185
-8.20182
-8.22419
-8.24891
-8.27583
-8.30484
-8.33574
-8.36834
-8.4024
-8.43768
-8.47392
-8.51084
-8.54817
-8.58565
-8.62301
-8.65999
-8.69634
-8.73185
-8.76629
-8.79947
-8.83121
-8.86133
-8.88969
-8.91616
-8.9406
-8.96292
-8.98301
-9.00078
-9.01617
-9.02908
-9.03949
-9.04732
-9.05255
-9.05512
-9.05502
-9.05221
-9.0467
-9.03846
-9.02754
-9.0139
-8.99763
-8.97872
-8.95726
-8.93329
-8.90692
-8.87821
-8.84731
-8.81431
-8.77937
-8.74262
-8.70424
-8.66439
-8.62328
-8.58108
-8.53801
-8.49426
-8.45004
-8.40556
-8.361
-8.31655
-8.27237
-8.22861
-8.18538
-8.14276
-8.10078
-8.05943
-8.01864
-7.97829
-7.93815
-7.89783
-7.85738
-7.81628
-7.77401
-7.73003
-7.68365
-7.63423
-7.58091
-7.52282
-7.45901
-7.3884
-7.30982
-7.2219
-7.12329
-7.01244
-6.88802
-6.74859
-6.59275
-6.41898
-6.22584
-6.01186
-5.7756
-5.51573
-5.2311
-4.92062
-4.58324
-4.21813
-3.82469
-3.40266
-2.95198
-2.47293
-1.96601
-1.43216
-0.872682
-0.289351
0.315678
0.939814
1.58012
2.23331
2.89583
3.56394
4.23376
4.90144
5.56319
6.21542
6.85474
7.47809
8.08278
8.66646
9.22722
9.76349
10.2741
10.7583
11.2156
11.6458
12.0492
12.4261
12.7771
13.103
13.4046
13.6829
13.9389
14.1738
14.3887
14.5849
14.7636
14.9261
15.0735
15.2069
15.3275
15.4363
15.5342
15.6222
15.7012
15.7718
15.8349
15.891
15.9409
15.9851
16.0243
16.0591
16.0898
16.117
16.1413
16.163
16.1827
16.2009
16.2176
16.233
16.2433
16.2526
16.2186
-7.98123
-8.00066
-8.02681
-8.04614
-8.06053
-8.07185
-8.08069
-8.08762
-8.09327
-8.09821
-8.10296
-8.10796
-8.11367
-8.12044
-8.12866
-8.13858
-8.15048
-8.16448
-8.18076
-8.1993
-8.22017
-8.24328
-8.26859
-8.29593
-8.3252
-8.35618
-8.38869
-8.42249
-8.45735
-8.49303
-8.52926
-8.5658
-8.60239
-8.63878
-8.67474
-8.71005
-8.74448
-8.77784
-8.80994
-8.84059
-8.86966
-8.89697
-8.92241
-8.94585
-8.96718
-8.98629
-9.0031
-9.01751
-9.02946
-9.03889
-9.04571
-9.04991
-9.0514
-9.0502
-9.04623
-9.03952
-9.03002
-9.01777
-9.00276
-8.98505
-8.96465
-8.94165
-8.91611
-8.88812
-8.85779
-8.82525
-8.79062
-8.75407
-8.71576
-8.67589
-8.63463
-8.59222
-8.54885
-8.50476
-8.46018
-8.41533
-8.37044
-8.32572
-8.28138
-8.2376
-8.19455
-8.15235
-8.1111
-8.07084
-8.03156
-7.99321
-7.95568
-7.91871
-7.88216
-7.84549
-7.80881
-7.77117
-7.73219
-7.69108
-7.64725
-7.59975
-7.54777
-7.49027
-7.42613
-7.35419
-7.27287
-7.18096
-7.07674
-6.9591
-6.8263
-6.67721
-6.50997
-6.32339
-6.11565
-5.88558
-5.6315
-5.35246
-5.04703
-4.71438
-4.35343
-3.96378
-3.54493
-3.09693
-2.61982
-2.1142
-1.5809
-1.02132
-0.437202
0.169237
0.795377
1.43826
2.09452
2.7606
3.43265
4.10684
4.7792
5.44594
6.10333
6.74798
7.37671
7.98674
8.57571
9.14159
9.68284
10.1982
10.6869
11.1484
11.5826
11.9896
12.3699
12.724
13.0528
13.3571
13.6379
13.8962
14.1333
14.3503
14.5485
14.7291
14.8934
15.0425
15.1776
15.2998
15.4101
15.5095
15.5989
15.6792
15.7511
15.8154
15.8727
15.9237
15.9689
16.0089
16.0442
16.0753
16.1027
16.1268
16.1479
16.1664
16.1826
16.1961
16.2068
16.2105
16.2113
16.1664
-7.97288
-7.99346
-8.0211
-8.04167
-8.05731
-8.07001
-8.08033
-8.08875
-8.09595
-8.10247
-8.10883
-8.11544
-8.12273
-8.13103
-8.14069
-8.15194
-8.16505
-8.18012
-8.19731
-8.21662
-8.2381
-8.26167
-8.28729
-8.3148
-8.34408
-8.37494
-8.40719
-8.44061
-8.47498
-8.51006
-8.54562
-8.5814
-8.61718
-8.65271
-8.68779
-8.72218
-8.7557
-8.78813
-8.81931
-8.84906
-8.87722
-8.90366
-8.92822
-8.95079
-8.97125
-8.9895
-9.00543
-9.01896
-9.02999
-9.03846
-9.0443
-9.04746
-9.04787
-9.04551
-9.04033
-9.03232
-9.02145
-9.00776
-8.99123
-8.97193
-8.94988
-8.92516
-8.89784
-8.86805
-8.83589
-8.8015
-8.76504
-8.72669
-8.68663
-8.64508
-8.60225
-8.55838
-8.51372
-8.46851
-8.42301
-8.37748
-8.33216
-8.28729
-8.24311
-8.19981
-8.15758
-8.11656
-8.07686
-8.03853
-8.00158
-7.96594
-7.93154
-7.89815
-7.86532
-7.83323
-7.80106
-7.76852
-7.73483
-7.69943
-7.66151
-7.62024
-7.57471
-7.52387
-7.46657
-7.40141
-7.32703
-7.24188
-7.14462
-7.03378
-6.90793
-6.76551
-6.60498
-6.42476
-6.22329
-5.99908
-5.75068
-5.47679
-5.17617
-4.84773
-4.49061
-4.1042
-3.68809
-3.24213
-2.76643
-2.26149
-1.72822
-1.16801
-0.582613
0.0257044
0.65431
1.30019
1.95999
2.6301
3.30667
3.98577
4.66337
5.33558
5.99858
6.64888
7.28322
7.89876
8.49307
9.06408
9.61018
10.1301
10.6231
11.0885
11.5264
11.9368
12.3202
12.6772
13.0086
13.3153
13.5983
13.8587
14.0977
14.3166
14.5165
14.6987
14.8646
15.0152
15.1517
15.2753
15.3869
15.4876
15.5782
15.6597
15.7328
15.7981
15.8565
15.9084
15.9545
15.9952
16.031
16.0625
16.0899
16.1136
16.1339
16.1511
16.1651
16.1755
16.1817
16.1794
16.1728
16.119
-7.97237
-7.99326
-8.02096
-8.0419
-8.05815
-8.07167
-8.08295
-8.09245
-8.10082
-8.10856
-8.11619
-8.12407
-8.13261
-8.1421
-8.15288
-8.16514
-8.17913
-8.19495
-8.21274
-8.23251
-8.25431
-8.27806
-8.30373
-8.33116
-8.36025
-8.39081
-8.42267
-8.45561
-8.48943
-8.52389
-8.55878
-8.59385
-8.6289
-8.66368
-8.698
-8.73163
-8.76439
-8.79607
-8.82651
-8.85552
-8.88297
-8.90868
-8.93253
-8.95439
-8.97413
-8.99163
-9.00679
-9.01952
-9.02971
-9.03729
-9.04216
-9.04429
-9.04359
-9.04003
-9.03356
-9.02418
-9.01183
-8.99657
-8.97837
-8.95732
-8.93342
-8.9068
-8.87752
-8.84572
-8.81151
-8.77508
-8.73658
-8.69623
-8.65423
-8.61082
-8.56625
-8.52079
-8.4747
-8.42827
-8.38179
-8.33553
-8.28977
-8.24479
-8.20082
-8.15809
-8.1168
-8.07711
-8.03915
-8.00297
-7.96858
-7.93593
-7.90494
-7.87531
-7.8469
-7.81925
-7.79217
-7.76499
-7.73695
-7.70753
-7.67584
-7.64109
-7.6023
-7.55834
-7.50805
-7.44985
-7.3825
-7.3043
-7.21413
-7.11019
-6.99129
-6.85552
-6.7016
-6.52759
-6.33222
-6.11363
-5.87064
-5.6016
-5.30548
-4.98096
-4.62737
-4.24386
-3.83015
-3.38587
-2.91125
-2.40668
-1.87321
-1.31214
-0.725267
-0.114813
0.516575
1.16583
1.82964
2.50427
3.18587
3.87031
4.55358
5.23156
5.90045
6.55658
7.19665
7.81775
8.41735
8.99341
9.5442
10.0685
10.5655
11.0347
11.476
11.8896
12.2758
12.6354
12.9692
13.278
13.5629
13.8252
14.0659
14.2864
14.4878
14.6715
14.8387
14.9907
15.1285
15.2533
15.3661
15.4679
15.5597
15.6422
15.7162
15.7826
15.8419
15.8946
15.9415
15.9828
16.0191
16.0508
16.0781
16.1014
16.1209
16.1367
16.1486
16.1559
16.1579
16.15
16.1371
16.076
-7.97909
-7.9995
-8.02609
-8.0466
-8.06282
-8.07654
-8.08822
-8.09831
-8.10737
-8.11591
-8.12437
-8.13311
-8.1425
-8.1528
-8.16432
-8.17722
-8.19175
-8.20797
-8.22605
-8.24597
-8.2678
-8.29147
-8.31694
-8.34408
-8.3728
-8.40291
-8.43425
-8.46662
-8.49984
-8.53367
-8.56792
-8.60234
-8.63673
-8.67087
-8.70455
-8.73756
-8.76972
-8.80082
-8.83069
-8.85916
-8.88606
-8.91124
-8.93455
-8.95585
-8.97501
-8.99191
-9.00641
-9.01842
-9.02783
-9.03455
-9.03848
-9.03956
-9.03772
-9.03292
-9.02509
-9.01422
-9.00028
-8.98329
-8.96327
-8.94028
-8.91437
-8.88564
-8.85418
-8.82015
-8.78369
-8.74499
-8.70425
-8.6617
-8.61757
-8.57213
-8.52567
-8.47847
-8.43085
-8.38311
-8.33559
-8.28857
-8.24239
-8.19731
-8.15362
-8.11156
-8.07135
-8.03316
-7.99712
-7.96331
-7.93172
-7.90233
-7.875
-7.84951
-7.82553
-7.80294
-7.78115
-7.75953
-7.73746
-7.71421
-7.68902
-7.66098
-7.62908
-7.59219
-7.54889
-7.49784
-7.43747
-7.36644
-7.2832
-7.1863
-7.07411
-6.94505
-6.79745
-6.62966
-6.44005
-6.22704
-5.98912
-5.7249
-5.43308
-5.11251
-4.7623
-4.38171
-3.97026
-3.52762
-3.05394
-2.54969
-2.01583
-1.45367
-0.864991
-0.252016
0.382559
1.03567
1.70389
2.38346
3.07041
3.76054
4.44969
5.13367
5.80854
6.47056
7.11633
7.74289
8.34767
8.92856
9.48385
10.0123
10.5131
10.9858
11.4302
11.8466
12.2355
12.5974
12.9332
13.244
13.5307
13.7946
14.0368
14.2587
14.4615
14.6465
14.815
14.9682
15.1072
15.2331
15.347
15.4498
15.5426
15.6261
15.7011
15.7683
15.8284
15.882
15.9296
15.9715
16.0081
16.0399
16.0672
16.09
16.1087
16.123
16.1328
16.1371
16.1352
16.1224
16.104
16.037
-7.99188
-8.01115
-8.0358
-8.05517
-8.07076
-8.08408
-8.09561
-8.10574
-8.11501
-8.12384
-8.13268
-8.14182
-8.15163
-8.16231
-8.17417
-8.18733
-8.20203
-8.21833
-8.23637
-8.25616
-8.27776
-8.3011
-8.32616
-8.35282
-8.381
-8.41053
-8.44126
-8.47301
-8.5056
-8.53881
-8.57244
-8.60627
-8.64009
-8.67369
-8.70686
-8.7394
-8.77111
-8.80179
-8.83127
-8.85936
-8.88589
-8.9107
-8.93363
-8.95452
-8.97323
-8.98962
-9.00356
-9.01493
-9.0236
-9.02949
-9.03248
-9.0325
-9.02946
-9.02333
-9.01402
-9.00154
-8.98585
-8.96698
-8.94493
-8.91981
-8.89165
-8.86059
-8.82672
-8.79023
-8.75126
-8.71007
-8.66684
-8.62186
-8.57537
-8.5277
-8.47914
-8.43004
-8.38073
-8.33158
-8.28292
-8.2351
-8.18846
-8.14331
-8.09995
-8.05865
-8.01964
-7.9831
-7.94917
-7.91792
-7.88937
-7.86348
-7.84009
-7.81898
-7.79993
-7.78242
-7.76625
-7.7505
-7.73461
-7.71781
-7.69931
-7.6782
-7.65335
-7.62364
-7.58749
-7.54368
-7.49043
-7.42662
-7.3504
-7.26054
-7.1551
-7.03274
-6.89145
-6.72988
-6.54604
-6.33865
-6.10585
-5.84645
-5.55889
-5.24223
-4.89532
-4.51754
-4.10813
-3.66693
-3.1939
-2.68965
-2.15501
-1.59138
-1.00049
-0.384603
0.253543
0.91085
1.58378
2.26855
2.96097
3.6569
4.35194
5.04192
5.72271
6.3905
7.04185
7.67367
8.28341
8.86886
9.42837
9.96066
10.4649
10.9408
11.3881
11.8071
12.1982
12.5623
12.9
13.2124
13.5007
13.7661
14.0097
14.2329
14.4369
14.6231
14.7927
14.947
15.0871
15.214
15.329
15.4328
15.5265
15.611
15.6869
15.755
15.816
15.8703
15.9184
15.9608
15.9978
16.0298
16.0569
16.0793
16.097
16.11
16.1178
16.1193
16.1137
16.0966
16.0734
16.0016
-8.00942
-8.02711
-8.04925
-8.06693
-8.08134
-8.09372
-8.10455
-8.11419
-8.12313
-8.13175
-8.14045
-8.14952
-8.15927
-8.1699
-8.18168
-8.19471
-8.20922
-8.22526
-8.24296
-8.26233
-8.28344
-8.30623
-8.33069
-8.35671
-8.38422
-8.41307
-8.44313
-8.47421
-8.50615
-8.53873
-8.57177
-8.60504
-8.63836
-8.67151
-8.70429
-8.73647
-8.76788
-8.79829
-8.82753
-8.85539
-8.88171
-8.90628
-8.92895
-8.94954
-8.96789
-8.98385
-8.99728
-9.00803
-9.01597
-9.02098
-9.02296
-9.02181
-9.01743
-9.0098
-8.99882
-8.98451
-8.96682
-8.94581
-8.92149
-8.89395
-8.86325
-8.82954
-8.79294
-8.75365
-8.71187
-8.66784
-8.62182
-8.5741
-8.52498
-8.47481
-8.42395
-8.37275
-8.32161
-8.27091
-8.22103
-8.17237
-8.12527
-8.0801
-8.03716
-7.99676
-7.95911
-7.92445
-7.89287
-7.86449
-7.8393
-7.81721
-7.79816
-7.78182
-7.76783
-7.75611
-7.74578
-7.73633
-7.72696
-7.71696
-7.70548
-7.69154
-7.67406
-7.65168
-7.62302
-7.58649
-7.5407
-7.48408
-7.41514
-7.33224
-7.23375
-7.11795
-6.98314
-6.82759
-6.64962
-6.44758
-6.21985
-5.96497
-5.68158
-5.36851
-5.0247
-4.64931
-4.24165
-3.80144
-3.32872
-2.82404
-2.28825
-1.72273
-1.12927
-0.510178
0.131801
0.793446
1.47119
2.16113
2.85903
3.56059
4.2614
4.95712
5.64355
6.31679
6.97332
7.61003
8.22427
8.81386
9.37714
9.91286
10.4202
10.8989
11.3487
11.77
12.1632
12.5291
12.8685
13.1824
13.4721
13.7388
13.9836
14.208
14.4132
14.6005
14.7712
14.9265
15.0676
15.1956
15.3115
15.4164
15.5111
15.5965
15.6733
15.7423
15.8041
15.8591
15.9079
15.9507
15.988
16.0201
16.047
16.069
16.0859
16.0975
16.1034
16.1023
16.0935
16.0725
16.0451
15.9695
-8.0304
-8.04624
-8.06555
-8.08114
-8.0939
-8.10483
-8.11442
-8.12303
-8.13109
-8.13895
-8.14699
-8.15547
-8.16468
-8.17479
-8.18604
-8.19854
-8.21248
-8.2279
-8.24494
-8.26361
-8.28398
-8.306
-8.32966
-8.35488
-8.38158
-8.40963
-8.43891
-8.46925
-8.50049
-8.53243
-8.56489
-8.59766
-8.63055
-8.66332
-8.69579
-8.72772
-8.75892
-8.78916
-8.81826
-8.84598
-8.87216
-8.89656
-8.91904
-8.93936
-8.95738
-8.97291
-8.98579
-8.99585
-9.00296
-9.007
-9.00781
-9.00532
-8.99942
-8.99006
-8.97717
-8.96076
-8.9408
-8.91733
-8.89038
-8.86005
-8.82645
-8.78972
-8.75003
-8.70761
-8.66267
-8.6155
-8.56639
-8.51567
-8.46369
-8.41083
-8.35749
-8.30408
-8.25103
-8.19874
-8.14769
-8.09822
-8.05081
-8.00575
-7.96347
-7.92418
-7.88823
-7.85573
-7.8269
-7.80176
-7.7803
-7.76248
-7.74815
-7.73697
-7.72876
-7.72292
-7.719
-7.71617
-7.71368
-7.71077
-7.70659
-7.70004
-7.69009
-7.67518
-7.65407
-7.62494
-7.58659
-7.53716
-7.47542
-7.39938
-7.30769
-7.19829
-7.06975
-6.92002
-6.74766
-6.55068
-6.32772
-6.07704
-5.79749
-5.48763
-5.14655
-4.77311
-4.36679
-3.92713
-3.45437
-2.94889
-2.41168
-1.84408
-1.24797
-0.625663
0.0200781
0.68594
1.36833
2.06319
2.76631
3.47315
4.17929
4.88024
5.57174
6.24983
6.9109
7.55184
8.16994
8.76308
9.32954
9.86816
10.3782
10.8592
11.3111
11.7344
12.1293
12.4968
12.8376
13.153
13.4439
13.7118
13.9578
14.1833
14.3896
14.578
14.7497
14.9061
15.0482
15.1773
15.2942
15.4001
15.4958
15.5822
15.66
15.7299
15.7924
15.8482
15.8975
15.9409
15.9785
16.0107
16.0375
16.059
16.0751
16.0855
16.0896
16.0862
16.0745
16.0501
16.019
15.9404
-8.05459
-8.0685
-8.08494
-8.09814
-8.10876
-8.11769
-8.12544
-8.13237
-8.1389
-8.14536
-8.15212
-8.1594
-8.16749
-8.17651
-8.1867
-8.19814
-8.21102
-8.22536
-8.24131
-8.25886
-8.27811
-8.29899
-8.32152
-8.34562
-8.37124
-8.39826
-8.42656
-8.456
-8.48643
-8.51766
-8.5495
-8.58174
-8.61419
-8.64661
-8.67881
-8.71052
-8.74157
-8.77169
-8.8007
-8.82832
-8.85438
-8.87862
-8.90087
-8.92089
-8.93851
-8.95351
-8.96572
-8.97498
-8.9811
-8.98396
-8.98341
-8.97936
-8.97168
-8.96034
-8.94525
-8.92645
-8.90387
-8.87763
-8.84771
-8.8143
-8.77745
-8.7374
-8.69432
-8.64845
-8.60006
-8.54948
-8.49703
-8.44311
-8.3881
-8.33244
-8.27655
-8.22091
-8.16596
-8.11221
-8.06005
-8.01
-7.96248
-7.91785
-7.87652
-7.83876
-7.80487
-7.77501
-7.74937
-7.72791
-7.71069
-7.69768
-7.68855
-7.6831
-7.68088
-7.68153
-7.68431
-7.68841
-7.69308
-7.69752
-7.70078
-7.70183
-7.69937
-7.6921
-7.67837
-7.65673
-7.62554
-7.58332
-7.52839
-7.45915
-7.37383
-7.27071
-7.14797
-7.00387
-6.83662
-6.64449
-6.4258
-6.17907
-5.90289
-5.59596
-5.25711
-4.88533
-4.47998
-4.04074
-3.56774
-3.06148
-2.52293
-1.95343
-1.35489
-0.729625
-0.0804548
0.589315
1.27593
1.97528
2.683
3.39451
4.10523
4.81062
5.50636
6.18844
6.85324
7.4976
8.11882
8.71478
9.28381
9.82477
10.3369
10.8198
11.2736
11.6985
12.095
12.4638
12.806
13.1226
13.4148
13.6838
13.9309
14.1575