/*--------------------------------*- C++ -*----------------------------------*\
  =========                 |
  \\      /  F ield         | OpenFOAM: The Open Source CFD Toolbox
   \\    /   O peration     | Website:  https://openfoam.org
    \\  /    A nd           | Version:  11
     \\/     M anipulation  |
\*---------------------------------------------------------------------------*/
FoamFile
{
    format      ascii;
    class       surfaceScalarField;
    location    "100";
    object      phi;
}
// * * * * * * * * * * * * * * * * * * * * * * * * * * * * * * * * * * * * * //

dimensions      [0 3 -1 0 0 0 0];

internalField   nonuniform List<scalar> 
24170
(
3.129e-06
5.94063e-08
3.0466e-06
8.23994e-08
2.97347e-06
7.31237e-08
2.90478e-06
6.86824e-08
2.84037e-06
6.43998e-08
2.78294e-06
5.74271e-08
2.73349e-06
4.94468e-08
2.69136e-06
4.2115e-08
2.65547e-06
3.58882e-08
2.62473e-06
3.0735e-08
2.59813e-06
2.65931e-08
2.57478e-06
2.33477e-08
2.55392e-06
2.08525e-08
2.53479e-06
1.91266e-08
2.51673e-06
1.80617e-08
2.49751e-06
1.92125e-08
2.47717e-06
2.03418e-08
3.98337e-08
2.43733e-06
3.45306e-06
2.3593e-08
3.457e-06
7.8461e-08
3.45052e-06
7.95976e-08
3.43904e-06
8.01589e-08
3.42422e-06
7.92104e-08
3.40693e-06
7.47156e-08
3.38763e-06
6.87353e-08
3.36701e-06
6.27319e-08
3.34573e-06
5.71586e-08
3.32438e-06
5.2078e-08
3.30343e-06
4.75427e-08
3.28312e-06
4.36451e-08
3.26364e-06
4.03301e-08
3.24496e-06
3.78095e-08
3.22717e-06
3.58438e-08
3.2101e-06
3.62857e-08
3.19432e-06
3.61249e-08
4.85902e-08
3.18556e-06
3.66815e-06
1.79555e-08
3.67918e-06
6.74294e-08
3.68539e-06
7.33879e-08
3.68939e-06
7.61521e-08
3.69095e-06
7.76508e-08
3.68992e-06
7.57334e-08
3.68671e-06
7.19423e-08
3.68177e-06
6.76669e-08
3.67549e-06
6.34358e-08
3.66818e-06
5.93844e-08
3.66011e-06
5.56137e-08
3.65149e-06
5.22561e-08
3.64249e-06
4.9329e-08
3.63322e-06
4.70745e-08
3.62366e-06
4.54049e-08
3.61436e-06
4.558e-08
3.6043e-06
4.61794e-08
5.25499e-08
3.60034e-06
3.92584e-06
1.75014e-08
3.9359e-06
5.73726e-08
3.94252e-06
6.67588e-08
3.94803e-06
7.06442e-08
3.95239e-06
7.32806e-08
3.95528e-06
7.28448e-08
3.95687e-06
7.03491e-08
3.9574e-06
6.71335e-08
3.95705e-06
6.37784e-08
3.95596e-06
6.04667e-08
3.95426e-06
5.73126e-08
3.95204e-06
5.44667e-08
3.94939e-06
5.19835e-08
3.94638e-06
5.00787e-08
3.94302e-06
4.87683e-08
3.93981e-06
4.87807e-08
3.93648e-06
4.95095e-08
5.26598e-08
3.93637e-06
4.20819e-06
1.64357e-08
4.21596e-06
4.96024e-08
4.22163e-06
6.10854e-08
4.2267e-06
6.55749e-08
4.23139e-06
6.85809e-08
4.2353e-06
6.89376e-08
4.23838e-06
6.72633e-08
4.24075e-06
6.47622e-08
4.2425e-06
6.20208e-08
4.24372e-06
5.92424e-08
4.24448e-06
5.65499e-08
4.24485e-06
5.40926e-08
4.24488e-06
5.19513e-08
4.24466e-06
5.02972e-08
4.24424e-06
4.91858e-08
4.24402e-06
4.89944e-08
4.24411e-06
4.94203e-08
5.07932e-08
4.24598e-06
4.5107e-06
1.482e-08
4.51686e-06
4.34455e-08
4.52208e-06
5.58637e-08
4.52685e-06
6.07967e-08
4.53151e-06
6.39199e-08
4.53569e-06
6.47561e-08
4.53927e-06
6.36747e-08
4.54232e-06
6.17081e-08
4.54491e-06
5.94316e-08
4.54709e-06
5.70616e-08
4.5489e-06
5.473e-08
4.55042e-06
5.25767e-08
4.55167e-06
5.06941e-08
4.55276e-06
4.92087e-08
4.55377e-06
4.81754e-08
4.555e-06
4.77583e-08
4.55666e-06
4.77542e-08
4.80079e-08
4.55945e-06
4.83432e-06
1.32171e-08
4.8396e-06
3.81638e-08
4.8447e-06
5.07661e-08
4.84936e-06
5.61325e-08
4.85393e-06
5.93398e-08
4.85818e-06
6.05071e-08
4.86196e-06
5.98883e-08
4.86532e-06
5.83496e-08
4.8683e-06
5.64462e-08
4.87095e-06
5.44056e-08
4.87331e-06
5.23659e-08
4.87543e-06
5.04553e-08
4.87736e-06
4.87663e-08
4.87918e-06
4.73874e-08
4.881e-06
4.63548e-08
4.88304e-06
4.57114e-08
4.8855e-06
4.52875e-08
4.48051e-08
4.8887e-06
5.18104e-06
1.17582e-08
5.18573e-06
3.3474e-08
5.1907e-06
4.57918e-08
5.19531e-06
5.15214e-08
5.19984e-06
5.48076e-08
5.20412e-06
5.62161e-08
5.20803e-06
5.59767e-08
5.21158e-06
5.48014e-08
5.2148e-06
5.32148e-08
5.21775e-06
5.14539e-08
5.22046e-06
4.96585e-08
5.22296e-06
4.79462e-08
5.22533e-06
4.64015e-08
5.22763e-06
4.50848e-08
5.22997e-06
4.40107e-08
5.23252e-06
4.31593e-08
5.23542e-06
4.2382e-08
4.14181e-08
5.23881e-06
5.55268e-06
1.04105e-08
5.55686e-06
2.92928e-08
5.56164e-06
4.10112e-08
5.56621e-06
4.69518e-08
5.57071e-06
5.02951e-08
5.57505e-06
5.18766e-08
5.57907e-06
5.19518e-08
5.58277e-06
5.10957e-08
5.5862e-06
4.9789e-08
5.58937e-06
4.82736e-08
5.59234e-06
4.66891e-08
5.59514e-06
4.51422e-08
5.59783e-06
4.37075e-08
5.60049e-06
4.24255e-08
5.6032e-06
4.12941e-08
5.60609e-06
4.0268e-08
5.60925e-06
3.92215e-08
3.79525e-08
5.61272e-06
5.95103e-06
9.1549e-09
5.95476e-06
2.55607e-08
5.9593e-06
3.64642e-08
5.96382e-06
4.24342e-08
5.96831e-06
4.57973e-08
5.97269e-06
4.74931e-08
5.97682e-06
4.78212e-08
5.98067e-06
4.72433e-08
5.98427e-06
4.61856e-08
5.98765e-06
4.48891e-08
5.99085e-06
4.34898e-08
5.9939e-06
4.20852e-08
5.99687e-06
4.07388e-08
5.99981e-06
3.94789e-08
6.00281e-06
3.82949e-08
6.00594e-06
3.71364e-08
6.00926e-06
3.59046e-08
3.44603e-08
6.01275e-06
6.37798e-06
7.9909e-09
6.38132e-06
2.22105e-08
6.38562e-06
3.21587e-08
6.39007e-06
3.79826e-08
6.39455e-06
4.13171e-08
6.39896e-06
4.30749e-08
6.40319e-06
4.3594e-08
6.40718e-06
4.32508e-08
6.41094e-06
4.24126e-08
6.41452e-06
4.13102e-08
6.41793e-06
4.00758e-08
6.42122e-06
3.87962e-08
6.42443e-06
3.75269e-08
6.42762e-06
3.62885e-08
6.43084e-06
3.50692e-08
6.43415e-06
3.38252e-08
6.43757e-06
3.24854e-08
3.09603e-08
6.44107e-06
5.74175e-06
7.07075e-09
5.74432e-06
1.96375e-08
5.74777e-06
2.87069e-08
5.75147e-06
3.428e-08
5.75524e-06
3.7547e-08
5.75899e-06
3.9321e-08
5.76263e-06
3.99541e-08
5.7661e-06
3.9773e-08
5.76941e-06
3.9097e-08
5.77258e-06
3.81413e-08
5.77562e-06
3.70319e-08
5.77857e-06
3.58488e-08
5.78145e-06
3.46409e-08
5.78431e-06
3.34271e-08
5.78718e-06
3.21968e-08
5.79008e-06
3.0917e-08
5.79303e-06
2.95358e-08
2.80007e-08
5.79599e-06
6.99913e-06
6.09458e-09
7.00185e-06
1.69123e-08
7.0056e-06
2.49584e-08
7.00974e-06
3.01369e-08
7.01402e-06
3.32564e-08
7.01834e-06
3.50006e-08
7.02258e-06
3.57151e-08
7.02667e-06
3.56794e-08
7.0306e-06
3.51607e-08
7.03439e-06
3.43527e-08
7.03805e-06
3.33721e-08
7.0416e-06
3.22923e-08
7.04508e-06
3.11561e-08
7.04852e-06
2.99815e-08
7.05195e-06
2.87641e-08
7.05538e-06
2.7482e-08
7.05881e-06
2.61055e-08
2.46054e-08
7.0622e-06
8.53187e-06
5.06854e-09
8.53472e-06
1.40619e-08
8.53873e-06
2.09392e-08
8.54331e-06
2.55561e-08
8.54814e-06
2.84223e-08
8.55307e-06
3.00691e-08
8.55797e-06
3.08148e-08
8.56275e-06
3.08914e-08
8.5674e-06
3.05149e-08
8.5719e-06
2.98486e-08
8.57627e-06
2.9e-08
8.58052e-06
2.80314e-08
8.58469e-06
2.69833e-08
8.5888e-06
2.58728e-08
8.59285e-06
2.47035e-08
8.59687e-06
2.34655e-08
8.60082e-06
2.2146e-08
2.0736e-08
8.60469e-06
1.04003e-05
4.00115e-09
1.04032e-05
1.11038e-08
1.04075e-05
1.66674e-08
1.04125e-05
2.05426e-08
1.04179e-05
2.30212e-08
1.04235e-05
2.44826e-08
1.04291e-05
2.51886e-08
1.04347e-05
2.53291e-08
1.04401e-05
2.50659e-08
1.04454e-05
2.45319e-08
1.04506e-05
2.38141e-08
1.04557e-05
2.29707e-08
1.04606e-05
2.20332e-08
1.04655e-05
2.10234e-08
1.04702e-05
1.99475e-08
1.04749e-05
1.88095e-08
1.04794e-05
1.76066e-08
1.63429e-08
1.04838e-05
1.26779e-05
2.89506e-09
1.2681e-05
8.03095e-09
1.26855e-05
1.21378e-08
1.26909e-05
1.50837e-08
1.26969e-05
1.70189e-08
1.27032e-05
1.81818e-08
1.27097e-05
1.87636e-08
1.27161e-05
1.89036e-08
1.27224e-05
1.87172e-08
1.27287e-05
1.82979e-08
1.27348e-05
1.7715e-08
1.27407e-05
1.70121e-08
1.27465e-05
1.6219e-08
1.27522e-05
1.53527e-08
1.27577e-05
1.44269e-08
1.27631e-05
1.34482e-08
1.27682e-05
1.24254e-08
1.13629e-08
1.27732e-05
1.54543e-05
1.73843e-09
1.54576e-05
4.79417e-09
1.54624e-05
7.28848e-09
1.54684e-05
9.11469e-09
1.54751e-05
1.0334e-08
1.54822e-05
1.10698e-08
1.54895e-05
1.14314e-08
1.54969e-05
1.15023e-08
1.55043e-05
1.13507e-08
1.55115e-05
1.10321e-08
1.55186e-05
1.05896e-08
1.55256e-05
1.00532e-08
1.55324e-05
9.44331e-09
1.55389e-05
8.77462e-09
1.55453e-05
8.0584e-09
1.55514e-05
7.30485e-09
1.55573e-05
6.52325e-09
5.72012e-09
1.5563e-05
1.88389e-05
4.89283e-10
1.88424e-05
1.26858e-09
1.88477e-05
1.94389e-09
1.88544e-05
2.44115e-09
1.8862e-05
2.76512e-09
1.88701e-05
2.94202e-09
1.88785e-05
2.99233e-09
1.88871e-05
2.93558e-09
1.88957e-05
2.78931e-09
1.89041e-05
2.56954e-09
1.89124e-05
2.28822e-09
1.89205e-05
1.95622e-09
1.89284e-05
1.58138e-09
1.8936e-05
1.17105e-09
1.89433e-05
7.3144e-10
1.89503e-05
2.6968e-10
1.8957e-05
-2.06818e-10
-6.94517e-10
1.89635e-05
2.29648e-05
-9.55886e-10
2.29689e-05
-2.83368e-09
2.29751e-05
-4.31362e-09
2.2983e-05
-5.41212e-09
2.29919e-05
-6.1618e-09
2.30015e-05
-6.65413e-09
2.30115e-05
-6.97347e-09
2.30216e-05
-7.17936e-09
2.30317e-05
-7.30566e-09
2.30416e-05
-7.38896e-09
2.30513e-05
-7.45098e-09
2.30608e-05
-7.51115e-09
2.307e-05
-7.57429e-09
2.30788e-05
-7.64784e-09
2.30872e-05
-7.73037e-09
2.30953e-05
-7.82473e-09
2.3103e-05
-7.92535e-09
-8.03596e-09
2.31104e-05
1.68118e-05
-2.09171e-09
1.6815e-05
-6.02516e-09
1.68199e-05
-9.1828e-09
1.68259e-05
-1.14667e-08
1.68327e-05
-1.29524e-08
1.68399e-05
-1.3865e-08
1.68474e-05
-1.43986e-08
1.68548e-05
-1.46516e-08
1.68622e-05
-1.47105e-08
1.68695e-05
-1.46404e-08
1.68765e-05
-1.45015e-08
1.68833e-05
-1.43222e-08
1.68899e-05
-1.41284e-08
1.68962e-05
-1.39276e-08
1.69021e-05
-1.37328e-08
1.69079e-05
-1.35433e-08
1.69133e-05
-1.33644e-08
-1.31942e-08
1.69185e-05
1.46357e-05
-3.18163e-09
1.46388e-05
-9.12987e-09
1.46435e-05
-1.39286e-08
1.46493e-05
-1.72593e-08
1.46556e-05
-1.93026e-08
1.46623e-05
-2.05116e-08
1.4669e-05
-2.11537e-08
1.46757e-05
-2.1371e-08
1.46823e-05
-2.12901e-08
1.46887e-05
-2.1031e-08
1.46949e-05
-2.06667e-08
1.47008e-05
-2.02451e-08
1.47065e-05
-1.97936e-08
1.47119e-05
-1.93338e-08
1.4717e-05
-1.88769e-08
1.47219e-05
-1.84316e-08
1.47265e-05
-1.79987e-08
-1.7584e-08
1.47309e-05
1.27412e-05
-4.20194e-09
1.27443e-05
-1.2272e-08
1.27491e-05
-1.87862e-08
1.27548e-05
-2.29451e-08
1.27609e-05
-2.53362e-08
1.27671e-05
-2.67335e-08
1.27733e-05
-2.74017e-08
1.27794e-05
-2.74896e-08
1.27853e-05
-2.72054e-08
1.2791e-05
-2.6714e-08
1.27965e-05
-2.6105e-08
1.28016e-05
-2.54318e-08
1.28066e-05
-2.47275e-08
1.28113e-05
-2.40202e-08
1.28157e-05
-2.33208e-08
1.28199e-05
-2.26418e-08
1.28239e-05
-2.19819e-08
-2.13477e-08
1.28276e-05
1.10918e-05
-5.05499e-09
1.1095e-05
-1.5506e-08
1.11002e-05
-2.39345e-08
1.11058e-05
-2.86034e-08
1.11116e-05
-3.11147e-08
1.11174e-05
-3.25991e-08
1.11232e-05
-3.31891e-08
1.11288e-05
-3.30671e-08
1.11341e-05
-3.25349e-08
1.11392e-05
-3.17895e-08
1.1144e-05
-3.09249e-08
1.11486e-05
-2.99954e-08
1.11529e-05
-2.90459e-08
1.1157e-05
-2.81004e-08
1.11608e-05
-2.71787e-08
1.11645e-05
-2.62837e-08
1.11679e-05
-2.54216e-08
-2.45916e-08
1.11711e-05
9.65583e-06
-5.6702e-09
9.65926e-06
-1.894e-08
9.66462e-06
-2.92987e-08
9.67014e-06
-3.41287e-08
9.67573e-06
-3.67091e-08
9.68133e-06
-3.82004e-08
9.68671e-06
-3.85693e-08
9.69178e-06
-3.81463e-08
9.69658e-06
-3.73336e-08
9.70111e-06
-3.63256e-08
9.70538e-06
-3.52017e-08
9.70941e-06
-3.40208e-08
9.71319e-06
-3.28293e-08
9.71674e-06
-3.16579e-08
9.72008e-06
-3.05201e-08
9.72322e-06
-2.94238e-08
9.72616e-06
-2.83692e-08
-2.73546e-08
9.72892e-06
8.40533e-06
-5.64762e-09
8.40965e-06
-2.3264e-08
8.4149e-06
-3.45498e-08
8.41994e-06
-3.91796e-08
8.42534e-06
-4.21049e-08
8.43078e-06
-4.36436e-08
8.4359e-06
-4.36939e-08
8.44064e-06
-4.28938e-08
8.44505e-06
-4.17455e-08
8.44915e-06
-4.04257e-08
8.45295e-06
-3.90038e-08
8.45647e-06
-3.7542e-08
8.45972e-06
-3.6089e-08
8.46274e-06
-3.46729e-08
8.46552e-06
-3.33088e-08
8.4681e-06
-3.20026e-08
8.47048e-06
-3.07546e-08
-2.9565e-08
8.47269e-06
7.31455e-06
-2.91555e-09
7.3212e-06
-2.99151e-08
7.32676e-06
-4.01152e-08
7.33173e-06
-4.41513e-08
7.33715e-06
-4.75264e-08
7.3425e-06
-4.89933e-08
7.3474e-06
-4.86037e-08
7.35185e-06
-4.73406e-08
7.35585e-06
-4.5758e-08
7.35944e-06
-4.40152e-08
7.36263e-06
-4.21937e-08
7.36545e-06
-4.03625e-08
7.36793e-06
-3.85778e-08
7.37012e-06
-3.6862e-08
7.37204e-06
-3.523e-08
7.37372e-06
-3.36848e-08
7.37519e-06
-3.22257e-08
-3.08454e-08
7.37647e-06
6.36245e-06
4.69533e-09
6.3719e-06
-3.93636e-08
6.37934e-06
-4.75546e-08
6.38599e-06
-5.08076e-08
6.39229e-06
-5.38289e-08
6.39762e-06
-5.43294e-08
6.40194e-06
-5.2924e-08
6.40545e-06
-5.08481e-08
6.40827e-06
-4.85853e-08
6.41048e-06
-4.62278e-08
6.41214e-06
-4.38501e-08
6.4133e-06
-4.1533e-08
6.41405e-06
-3.93247e-08
6.41443e-06
-3.72442e-08
6.4145e-06
-3.53044e-08
6.41431e-06
-3.35015e-08
6.41392e-06
-3.1837e-08
-3.02881e-08
6.41337e-06
5.54121e-06
8.95402e-09
5.55033e-06
-4.8493e-08
5.55836e-06
-5.55813e-08
5.56607e-06
-5.85226e-08
5.57254e-06
-6.03066e-08
5.57688e-06
-5.86728e-08
5.57914e-06
-5.5186e-08
5.57972e-06
-5.14288e-08
5.57898e-06
-4.78537e-08
5.57722e-06
-4.44631e-08
5.57464e-06
-4.12769e-08
5.57144e-06
-3.83378e-08
5.56777e-06
-3.56536e-08
5.56374e-06
-3.32155e-08
5.55945e-06
-3.10206e-08
5.555e-06
-2.90518e-08
5.55047e-06
-2.73092e-08
-2.57458e-08
5.54593e-06
4.86004e-06
-2.34836e-08
4.86539e-06
-5.38395e-08
4.86524e-06
-5.54411e-08
4.86218e-06
-5.54615e-08
4.85702e-06
-5.51482e-08
4.84953e-06
-5.11865e-08
4.83984e-06
-4.5506e-08
4.82846e-06
-4.00535e-08
4.8159e-06
-3.5299e-08
4.80264e-06
-3.12034e-08
4.78906e-06
-2.76977e-08
4.77544e-06
-2.47193e-08
4.76197e-06
-2.21876e-08
4.74878e-06
-2.00325e-08
4.73597e-06
-1.82078e-08
4.72359e-06
-1.66789e-08
4.71176e-06
-1.54851e-08
-1.51448e-08
4.70116e-06
4.17919e-06
4.12535e-06
4.06991e-06
4.01445e-06
3.9593e-06
3.90811e-06
3.86261e-06
3.82255e-06
3.78725e-06
3.75605e-06
3.72835e-06
3.70363e-06
3.68144e-06
3.66141e-06
3.6432e-06
3.62652e-06
3.61104e-06
3.59589e-06
2.11996e-08
-2.13359e-08
4.51734e-08
-2.40844e-08
6.48583e-08
-1.98217e-08
7.8793e-08
-1.40029e-08
8.63505e-08
-7.67283e-09
8.76883e-08
-1.41111e-09
8.32165e-08
4.35958e-09
7.37625e-08
9.35856e-09
6.01745e-08
1.34757e-08
4.33509e-08
1.6712e-08
2.4103e-08
1.91381e-08
3.0652e-09
2.09337e-08
-1.96723e-08
2.26325e-08
-4.49968e-08
2.52485e-08
-7.43651e-08
2.92197e-08
-1.0379e-07
2.9316e-08
-1.30513e-07
2.6502e-08
-1.62345e-07
3.17409e-08
-2.00954e-07
3.84188e-08
-2.46235e-07
4.52135e-08
-2.97598e-07
5.12008e-08
-3.53557e-07
5.59097e-08
-4.13404e-07
5.97092e-08
-4.75905e-07
6.24615e-08
-5.40339e-07
6.43032e-08
-6.06441e-07
6.60607e-08
-6.74165e-07
6.75885e-08
-7.42937e-07
6.87265e-08
-8.12459e-07
6.93888e-08
-8.82072e-07
6.95607e-08
-9.51462e-07
6.9251e-08
-1.02003e-06
6.85093e-08
-1.08755e-06
6.73819e-08
-1.15356e-06
6.59392e-08
-1.21793e-06
6.42382e-08
-1.28036e-06
6.2352e-08
-1.34082e-06
6.03327e-08
-1.39913e-06
5.82424e-08
-1.45537e-06
5.61179e-08
-1.50943e-06
5.40053e-08
-1.56146e-06
5.19253e-08
-1.61142e-06
4.99087e-08
-1.65948e-06
4.79629e-08
-1.70564e-06
4.61073e-08
-1.75007e-06
4.43397e-08
-1.7928e-06
4.26708e-08
-1.83397e-06
4.10924e-08
-1.87364e-06
3.96103e-08
-1.91194e-06
3.82142e-08
-1.94891e-06
3.69071e-08
-1.98466e-06
3.56773e-08
-2.01925e-06
3.4526e-08
-2.05278e-06
3.34424e-08
-2.08529e-06
3.24281e-08
-2.11685e-06
3.14727e-08
-2.14752e-06
3.0578e-08
-2.17736e-06
2.97359e-08
-2.20642e-06
2.89496e-08
-2.23474e-06
2.8212e-08
-2.26239e-06
2.7526e-08
-2.28939e-06
2.68865e-08
-2.31582e-06
2.62971e-08
-2.34168e-06
2.57545e-08
-2.36708e-06
2.52608e-08
-2.392e-06
2.48153e-08
-2.41655e-06
2.44193e-08
-2.44073e-06
2.40746e-08
-2.46464e-06
2.37813e-08
-2.48827e-06
2.35428e-08
-2.51175e-06
2.33567e-08
-2.53505e-06
2.32291e-08
-2.55833e-06
2.31563e-08
-2.58154e-06
2.31456e-08
-2.60485e-06
2.3189e-08
-2.62821e-06
2.3295e-08
-2.6518e-06
2.34524e-08
-2.67556e-06
2.36709e-08
-2.69965e-06
2.39403e-08
-2.724e-06
2.42677e-08
-2.74879e-06
2.46315e-08
-2.7739e-06
2.50403e-08
-2.79952e-06
2.54701e-08
-2.82549e-06
2.59204e-08
-2.85197e-06
2.63294e-08
-2.87851e-06
2.65012e-08
-2.90561e-06
2.69918e-08
-2.93332e-06
2.7712e-08
-2.96127e-06
2.79744e-08
-2.9894e-06
2.82235e-08
-3.01768e-06
2.84917e-08
-3.04622e-06
2.8722e-08
-3.07466e-06
2.86061e-08
-3.10307e-06
2.85501e-08
-3.13117e-06
2.82416e-08
-3.15885e-06
2.78064e-08
-3.18606e-06
2.73453e-08
-3.21235e-06
2.6384e-08
-3.23765e-06
2.53851e-08
-3.26158e-06
2.39637e-08
-3.28381e-06
2.22402e-08
-3.30413e-06
2.02509e-08
-3.32208e-06
1.77955e-08
-3.33719e-06
1.48527e-08
-3.34866e-06
1.10961e-08
-3.35612e-06
7.06238e-09
-3.36018e-06
3.58554e-09
-3.36013e-06
-4.55712e-10
-3.35556e-06
-5.00532e-09
-3.3474e-06
-8.50936e-09
-3.3351e-06
-1.26503e-08
-3.31808e-06
-1.72783e-08
-3.29632e-06
-2.20478e-08
-3.26945e-06
-2.70437e-08
-3.23756e-06
-3.20771e-08
-3.20047e-06
-3.71813e-08
-3.15799e-06
-4.25958e-08
-3.10966e-06
-4.83519e-08
-3.05563e-06
-5.4036e-08
-2.99561e-06
-5.9907e-08
-2.92993e-06
-6.56037e-08
-2.85858e-06
-7.13003e-08
-2.7815e-06
-7.71686e-08
-2.69868e-06
-8.28895e-08
-2.61024e-06
-8.85136e-08
-2.51626e-06
-9.39098e-08
-2.41703e-06
-9.91115e-08
-2.31274e-06
-1.04028e-07
-2.20377e-06
-1.08672e-07
-2.09041e-06
-1.12964e-07
-1.97308e-06
-1.16907e-07
-1.85217e-06
-1.20438e-07
-1.72813e-06
-1.23556e-07
-1.6014e-06
-1.26219e-07
-1.47248e-06
-1.28428e-07
-1.3418e-06
-1.30169e-07
-1.20986e-06
-1.31456e-07
-1.07709e-06
-1.32304e-07
-9.43944e-07
-1.3273e-07
-8.10834e-07
-1.32768e-07
-6.78156e-07
-1.32438e-07
-5.4623e-07
-1.3176e-07
-4.15456e-07
-1.30704e-07
-2.85881e-07
-1.29567e-07
-1.56987e-07
-1.28961e-07
-2.78246e-08
-1.29274e-07
1.01379e-07
-1.29355e-07
2.28531e-07
-1.27316e-07
3.52118e-07
-1.23768e-07
4.71608e-07
-1.19671e-07
5.86729e-07
-1.1531e-07
6.97379e-07
-1.10829e-07
8.03489e-07
-1.06293e-07
9.05074e-07
-1.01755e-07
1.00218e-06
-9.72702e-08
1.09489e-06
-9.28663e-08
1.18327e-06
-8.85339e-08
1.26746e-06
-8.43269e-08
1.34761e-06
-8.02715e-08
1.42383e-06
-7.63356e-08
1.49624e-06
-7.25179e-08
1.56499e-06
-6.88347e-08
1.63021e-06
-6.53017e-08
1.69206e-06
-6.19197e-08
1.75066e-06
-5.86644e-08
1.80614e-06
-5.55271e-08
1.8586e-06
-5.2509e-08
1.90817e-06
-4.96044e-08
1.95494e-06
-4.67918e-08
1.99897e-06
-4.40629e-08
2.04034e-06
-4.13852e-08
2.07904e-06
-3.87125e-08
2.115e-06
-3.5971e-08
2.14804e-06
-3.30589e-08
2.17782e-06
-2.97921e-08
2.20363e-06
-2.58229e-08
2.22414e-06
-2.05297e-08
2.23555e-06
-1.14423e-08
2.22868e-06
6.84737e-09
2.18154e-06
4.71081e-08
1.15801e-07
2.06574e-06
2.12084e-08
-4.26585e-08
3.49646e-08
-3.79251e-08
4.183e-08
-2.67655e-08
4.37099e-08
-1.59281e-08
4.13834e-08
-5.40795e-09
3.51919e-08
4.73335e-09
2.51553e-08
1.43344e-08
1.1194e-08
2.32613e-08
-6.83379e-09
3.14388e-08
-2.90896e-08
3.89019e-08
-5.56946e-08
4.56792e-08
-8.65902e-08
5.17704e-08
-1.21722e-07
5.77067e-08
-1.60688e-07
6.4166e-08
-2.02671e-07
7.11461e-08
-2.50773e-07
7.73749e-08
-3.06843e-07
8.25147e-08
-3.64219e-07
8.90777e-08
-4.22523e-07
9.66702e-08
-4.81963e-07
1.0462e-07
-5.42959e-07
1.12149e-07
-6.05706e-07
1.18626e-07
-6.70019e-07
1.23976e-07
-7.35819e-07
1.28234e-07
-8.02866e-07
1.31303e-07
-8.70171e-07
1.33333e-07
-9.37112e-07
1.34478e-07
-1.00318e-06
1.34761e-07
-1.06804e-06
1.34201e-07
-1.13138e-06
1.32855e-07
-1.19299e-06
1.30812e-07
-1.2527e-06
1.28177e-07
-1.31044e-06
1.25062e-07
-1.36612e-06
1.21576e-07
-1.41976e-06
1.17823e-07
-1.47136e-06
1.13901e-07
-1.52097e-06
1.09893e-07
-1.56865e-06
1.05873e-07
-1.61448e-06
1.01898e-07
-1.65853e-06
9.80164e-08
-1.70091e-06
9.42592e-08
-1.74169e-06
9.06525e-08
-1.78098e-06
8.72098e-08
-1.81885e-06
8.39414e-08
-1.8554e-06
8.08484e-08
-1.8907e-06
7.79318e-08
-1.92483e-06
7.51853e-08
-1.95786e-06
7.26049e-08
-1.98987e-06
7.01813e-08
-2.02091e-06
6.79081e-08
-2.05105e-06
6.57742e-08
-2.08033e-06
6.37732e-08
-2.10883e-06
6.18948e-08
-2.13658e-06
6.01336e-08
-2.16364e-06
5.84805e-08
-2.19005e-06
5.69317e-08
-2.21585e-06
5.54807e-08
-2.24109e-06
5.41261e-08
-2.2658e-06
5.28624e-08
-2.29003e-06
5.16894e-08
-2.31382e-06
5.06042e-08
-2.3372e-06
4.9608e-08
-2.36021e-06
4.86993e-08
-2.3829e-06
4.788e-08
-2.4053e-06
4.71497e-08
-2.42746e-06
4.65112e-08
-2.44942e-06
4.59651e-08
-2.47122e-06
4.55145e-08
-2.4929e-06
4.516e-08
-2.51451e-06
4.49039e-08
-2.53608e-06
4.47473e-08
-2.55767e-06
4.46903e-08
-2.57931e-06
4.4733e-08
-2.60105e-06
4.48727e-08
-2.62291e-06
4.51065e-08
-2.64496e-06
4.54288e-08
-2.66719e-06
4.58379e-08
-2.68964e-06
4.63242e-08
-2.71231e-06
4.68783e-08
-2.73524e-06
4.74825e-08
-2.75838e-06
4.81244e-08
-2.78176e-06
4.87778e-08
-2.80531e-06
4.94189e-08
-2.82906e-06
5.00092e-08
-2.85312e-06
5.05231e-08
-2.87726e-06
5.10871e-08
-2.90124e-06
5.16705e-08
-2.92529e-06
5.20252e-08
-2.94919e-06
5.22145e-08
-2.97284e-06
5.22422e-08
-2.99608e-06
5.20721e-08
-3.01898e-06
5.16046e-08
-3.04121e-06
5.08614e-08
-3.06269e-06
4.97952e-08
-3.0832e-06
4.83833e-08
-3.10241e-06
4.66305e-08
-3.12036e-06
4.43741e-08
-3.13663e-06
4.16908e-08
-3.15114e-06
3.84788e-08
-3.16367e-06
3.47476e-08
-3.17399e-06
3.04939e-08
-3.18198e-06
2.56625e-08
-3.18758e-06
2.0228e-08
-3.19094e-06
1.42052e-08
-3.19203e-06
7.82815e-09
-3.19006e-06
1.31799e-09
-3.18506e-06
-5.76003e-09
-3.1768e-06
-1.35236e-08
-3.16411e-06
-2.14616e-08
-3.1471e-06
-2.98654e-08
-3.12571e-06
-3.88749e-08
-3.09954e-06
-4.83661e-08
-3.06848e-06
-5.82481e-08
-3.03214e-06
-6.85057e-08
-2.99029e-06
-7.9125e-08
-2.94286e-06
-9.00691e-08
-2.88992e-06
-1.01328e-07
-2.83109e-06
-1.12838e-07
-2.7665e-06
-1.2444e-07
-2.69597e-06
-1.36075e-07
-2.6195e-06
-1.47775e-07
-2.53722e-06
-1.5949e-07
-2.44913e-06
-1.71066e-07
-2.35527e-06
-1.82409e-07
-2.25579e-06
-1.93366e-07
-2.15093e-06
-2.03893e-07
-2.04094e-06
-2.13878e-07
-1.92616e-06
-2.23269e-07
-1.80694e-06
-2.31964e-07
-1.6837e-06
-2.39907e-07
-1.55686e-06
-2.47013e-07
-1.42691e-06
-2.53244e-07
-1.29431e-06
-2.58541e-07
-1.15959e-06
-2.62888e-07
-1.02323e-06
-2.66273e-07
-8.85726e-07
-2.68714e-07
-7.47567e-07
-2.70232e-07
-6.09231e-07
-2.7088e-07
-4.71141e-07
-2.70708e-07
-3.33693e-07
-2.69796e-07
-1.97059e-07
-2.68335e-07
-6.12105e-08
-2.6654e-07
7.35094e-08
-2.64293e-07
2.06012e-07
-2.61509e-07
3.34752e-07
-2.58069e-07
4.58897e-07
-2.53582e-07
5.79116e-07
-2.47618e-07
6.95776e-07
-2.40529e-07
8.0876e-07
-2.32752e-07
9.17921e-07
-2.2458e-07
1.02316e-06
-2.16169e-07
1.1244e-06
-2.07651e-07
1.22165e-06
-1.99101e-07
1.31489e-06
-1.90621e-07
1.40417e-06
-1.82249e-07
1.48956e-06
-1.74023e-07
1.57112e-06
-1.65981e-07
1.64894e-06
-1.58174e-07
1.7231e-06
-1.50583e-07
1.79374e-06
-1.43234e-07
1.86097e-06
-1.36132e-07
1.92491e-06
-1.29305e-07
1.98568e-06
-1.22742e-07
2.04339e-06
-1.16423e-07
2.09815e-06
-1.10329e-07
2.15006e-06
-1.04463e-07
2.19923e-06
-9.88047e-08
2.24574e-06
-9.33282e-08
2.28966e-06
-8.80025e-08
2.33103e-06
-8.27733e-08
2.36985e-06
-7.75438e-08
2.40604e-06
-7.21842e-08
2.43946e-06
-6.64854e-08
2.46977e-06
-6.01173e-08
2.49639e-06
-5.24608e-08
2.51828e-06
-4.24346e-08
2.53426e-06
-2.74398e-08
2.54369e-06
-2.60665e-09
2.54519e-06
4.55903e-08
1.37383e-07
2.52361e-06
9.10019e-09
-5.18523e-08
1.00771e-08
-3.89668e-08
6.51755e-09
-2.32634e-08
-6.42969e-10
-8.80087e-09
-1.10003e-08
4.90612e-09
-2.438e-08
1.808e-08
-4.0863e-08
3.07771e-08
-6.065e-08
4.30108e-08
-8.40355e-08
5.47836e-08
-1.11274e-07
6.61016e-08
-1.42551e-07
7.69173e-08
-1.78046e-07
8.72315e-08
-2.17651e-07
9.72764e-08
-2.6082e-07
1.07308e-07
-3.07027e-07
1.17322e-07
-3.56659e-07
1.26982e-07
-4.10209e-07
1.36034e-07
-4.66068e-07
1.44915e-07
-5.23079e-07
1.53652e-07
-5.80495e-07
1.62016e-07
-6.3807e-07
1.69695e-07
-6.95899e-07
1.76434e-07
-7.53986e-07
1.82033e-07
-8.12084e-07
1.86311e-07
-8.70035e-07
1.89223e-07
-9.27533e-07
1.90808e-07
-9.84246e-07
1.91159e-07
-1.03988e-06
1.90374e-07
-1.09428e-06
1.88568e-07
-1.14732e-06
1.85865e-07
-1.19894e-06
1.82397e-07
-1.24909e-06
1.78299e-07
-1.29777e-06
1.73706e-07
-1.34496e-06
1.68744e-07
-1.3907e-06
1.63532e-07
-1.435e-06
1.58173e-07
-1.4779e-06
1.52758e-07
-1.51942e-06
1.47366e-07
-1.55961e-06
1.42059e-07
-1.5985e-06
1.36884e-07
-1.63615e-06
1.31877e-07
-1.67259e-06
1.27065e-07
-1.70787e-06
1.22464e-07
-1.74203e-06
1.18083e-07
-1.77513e-06
1.13925e-07
-1.80722e-06
1.0999e-07
-1.83833e-06
1.06272e-07
-1.86852e-06
1.02765e-07
-1.89782e-06
9.94606e-08
-1.92629e-06
9.63495e-08
-1.95396e-06
9.34213e-08
-1.98088e-06
9.06663e-08
-2.00709e-06
8.80748e-08
-2.03263e-06
8.56384e-08
-2.05753e-06
8.33486e-08
-2.08183e-06
8.11989e-08
-2.10557e-06
7.91835e-08
-2.12879e-06
7.72983e-08
-2.1515e-06
7.55393e-08
-2.17376e-06
7.39045e-08
-2.19559e-06
7.23922e-08
-2.21703e-06
7.10024e-08
-2.23811e-06
6.97351e-08
-2.25886e-06
6.85917e-08
-2.27933e-06
6.75733e-08
-2.29955e-06
6.66823e-08
-2.31955e-06
6.59205e-08
-2.33937e-06
6.52906e-08
-2.35904e-06
6.47943e-08
-2.37861e-06
6.44333e-08
-2.39811e-06
6.42082e-08
-2.41757e-06
6.41192e-08
-2.43704e-06
6.41648e-08
-2.45654e-06
6.43407e-08
-2.47611e-06
6.46419e-08
-2.49579e-06
6.50615e-08
-2.51558e-06
6.55908e-08
-2.53551e-06
6.62176e-08
-2.5556e-06
6.69256e-08
-2.57586e-06
6.7694e-08
-2.59627e-06
6.85003e-08
-2.61685e-06
6.93155e-08
-2.63758e-06
7.01085e-08
-2.65845e-06
7.08465e-08
-2.67947e-06
7.15095e-08
-2.70052e-06
7.21051e-08
-2.72148e-06
7.26123e-08
-2.74237e-06
7.29242e-08
-2.76312e-06
7.29886e-08
-2.7836e-06
7.27993e-08
-2.80375e-06
7.22877e-08
-2.8235e-06
7.1397e-08
-2.84268e-06
7.0088e-08
-2.86117e-06
6.83131e-08
-2.87878e-06
6.60421e-08
-2.89537e-06
6.32265e-08
-2.91078e-06
5.98058e-08
-2.92484e-06
5.57392e-08
-2.93737e-06
5.10029e-08
-2.94823e-06
4.55528e-08
-2.9572e-06
3.93859e-08
-2.96414e-06
3.24682e-08
-2.96889e-06
2.47833e-08
-2.97127e-06
1.6366e-08
-2.97097e-06
7.28077e-09
-2.96747e-06
-2.40599e-09
-2.9606e-06
-1.28592e-08
-2.95014e-06
-2.41609e-08
-2.93566e-06
-3.61394e-08
-2.91692e-06
-4.87495e-08
-2.89379e-06
-6.21493e-08
-2.86599e-06
-7.62741e-08
-2.83328e-06
-9.1061e-08
-2.79537e-06
-1.06475e-07
-2.7521e-06
-1.22468e-07
-2.70331e-06
-1.38883e-07
-2.64896e-06
-1.55699e-07
-2.58887e-06
-1.72899e-07
-2.52297e-06
-1.90301e-07
-2.45116e-06
-2.07839e-07
-2.37349e-06
-2.25462e-07
-2.28999e-06
-2.43022e-07
-2.20072e-06
-2.60397e-07
-2.10575e-06
-2.77404e-07
-2.00523e-06
-2.93874e-07
-1.89939e-06
-3.09667e-07
-1.78851e-06
-3.24658e-07
-1.67293e-06
-3.38713e-07
-1.55303e-06
-3.51712e-07
-1.42922e-06
-3.63536e-07
-1.30197e-06
-3.74082e-07
-1.17175e-06
-3.83266e-07
-1.03908e-06
-3.91025e-07
-9.04456e-07
-3.97321e-07
-7.68404e-07
-4.02145e-07
-6.31426e-07
-4.05518e-07
-4.94018e-07
-4.07487e-07
-3.56649e-07
-4.08114e-07
-2.19729e-07
-4.07529e-07
-8.35312e-08
-4.05912e-07
5.15284e-08
-4.0334e-07
1.8476e-07
-3.9972e-07
3.15478e-07
-3.9498e-07
4.43141e-07
-3.89143e-07
5.67236e-07
-3.82155e-07
6.87496e-07
-3.73832e-07
8.04033e-07
-3.6416e-07
9.16914e-07
-3.53411e-07
1.02606e-06
-3.41911e-07
1.13139e-06
-3.29918e-07
1.23284e-06
-3.17628e-07
1.33037e-06
-3.0519e-07
1.42398e-06
-2.92724e-07
1.51368e-06
-2.80337e-07
1.59953e-06
-2.6811e-07
1.68159e-06
-2.5609e-07
1.75992e-06
-2.44329e-07
1.83463e-06
-2.32888e-07
1.90583e-06
-2.2179e-07
1.97364e-06
-2.11047e-07
2.03817e-06
-2.00671e-07
2.09954e-06
-1.90677e-07
2.15787e-06
-1.81066e-07
2.21326e-06
-1.71814e-07
2.26583e-06
-1.629e-07
2.31569e-06
-1.54312e-07
2.36292e-06
-1.46029e-07
2.40761e-06
-1.3801e-07
2.44983e-06
-1.30215e-07
2.48962e-06
-1.22551e-07
2.52697e-06
-1.14892e-07
2.56185e-06
-1.07046e-07
2.59409e-06
-9.87248e-08
2.62345e-06
-8.94713e-08
2.64949e-06
-7.84946e-08
2.67149e-06
-6.44349e-08
2.6886e-06
-4.45467e-08
2.70009e-06
-1.41045e-08
2.70788e-06
3.7801e-08
1.29914e-07
2.71536e-06
-4.80751e-09
-4.71265e-08
-1.49293e-08
-2.88976e-08
-2.73275e-08
-1.09093e-08
-4.19427e-08
5.78696e-09
-5.87857e-08
2.17173e-08
-7.79197e-08
3.71899e-08
-9.95071e-08
5.23352e-08
-1.23721e-07
6.71995e-08
-1.5075e-07
8.17844e-08
-1.80732e-07
9.60588e-08
-2.13807e-07
1.09965e-07
-2.50066e-07
1.23468e-07
-2.89407e-07
1.36593e-07
-3.31491e-07
1.49373e-07
-3.75948e-07
1.61757e-07
-4.22578e-07
1.73596e-07
-4.71301e-07
1.84736e-07
-5.21562e-07
1.9516e-07
-5.72745e-07
2.04813e-07
-6.2432e-07
2.13575e-07
-6.75931e-07
2.21284e-07
-7.27305e-07
2.27792e-07
-7.7827e-07
2.32975e-07
-8.28707e-07
2.3673e-07
-8.78532e-07
2.39024e-07
-9.27635e-07
2.39892e-07
-9.75925e-07
2.39422e-07
-1.0233e-06
2.37733e-07
-1.06972e-06
2.34961e-07
-1.11513e-06
2.31251e-07
-1.15951e-06
2.26751e-07
-1.20284e-06
2.21606e-07
-1.24511e-06
2.15957e-07
-1.28632e-06
2.09935e-07
-1.32648e-06
2.03663e-07
-1.36557e-06
1.97247e-07
-1.40362e-06
1.90783e-07
-1.44062e-06
1.84347e-07
-1.47659e-06
1.78007e-07
-1.51153e-06
1.71811e-07
-1.54548e-06
1.65799e-07
-1.57843e-06
1.6e-07
-1.61042e-06
1.54434e-07
-1.64146e-06
1.49111e-07
-1.6716e-06
1.44039e-07
-1.70084e-06
1.39217e-07
-1.72923e-06
1.34643e-07
-1.7568e-06
1.3031e-07
-1.78357e-06
1.26212e-07
-1.80958e-06
1.22339e-07
-1.83486e-06
1.18681e-07
-1.85945e-06
1.15227e-07
-1.88336e-06
1.11969e-07
-1.90665e-06
1.08897e-07
-1.92933e-06
1.06003e-07
-1.95144e-06
1.03279e-07
-1.973e-06
1.00719e-07
-1.99405e-06
9.83196e-08
-2.01462e-06
9.60758e-08
-2.03473e-06
9.39858e-08
-2.05442e-06
9.20483e-08
-2.07372e-06
9.02636e-08
-2.09265e-06
8.86322e-08
-2.11124e-06
8.71559e-08
-2.12954e-06
8.58369e-08
-2.14757e-06
8.46777e-08
-2.16536e-06
8.36813e-08
-2.18296e-06
8.28505e-08
-2.20038e-06
8.21876e-08
-2.21767e-06
8.16944e-08
-2.23487e-06
8.13719e-08
-2.25199e-06
8.12191e-08
-2.26909e-06
8.12338e-08
-2.28619e-06
8.14118e-08
-2.30332e-06
8.17456e-08
-2.32051e-06
8.22257e-08
-2.33779e-06
8.28404e-08
-2.35518e-06
8.35731e-08
-2.37268e-06
8.44034e-08
-2.39033e-06
8.53059e-08
-2.40811e-06
8.62519e-08
-2.42603e-06
8.72072e-08
-2.44409e-06
8.81351e-08
-2.46227e-06
8.89982e-08
-2.48055e-06
8.97644e-08
-2.49888e-06
9.0408e-08
-2.51717e-06
9.08936e-08
-2.5354e-06
9.11467e-08
-2.55349e-06
9.11128e-08
-2.57137e-06
9.07211e-08
-2.58898e-06
8.99333e-08
-2.60623e-06
8.86681e-08
-2.62299e-06
8.687e-08
-2.63915e-06
8.44832e-08
-2.65456e-06
8.14591e-08
-2.66907e-06
7.77387e-08
-2.68255e-06
7.32662e-08
-2.69482e-06
6.79837e-08
-2.70571e-06
6.18545e-08
-2.71505e-06
5.48283e-08
-2.72265e-06
4.6875e-08
-2.72829e-06
3.79621e-08
-2.73176e-06
2.8062e-08
-2.73279e-06
1.71888e-08
-2.73108e-06
5.35373e-09
-2.72626e-06
-7.4197e-09
-2.7181e-06
-2.12094e-08
-2.70638e-06
-3.60466e-08
-2.6908e-06
-5.18648e-08
-2.67109e-06
-6.85854e-08
-2.64705e-06
-8.6304e-08
-2.61843e-06
-1.04982e-07
-2.58499e-06
-1.24577e-07
-2.54652e-06
-1.45002e-07
-2.50286e-06
-1.66182e-07
-2.45381e-06
-1.87956e-07
-2.39923e-06
-2.10282e-07
-2.33901e-06
-2.33086e-07
-2.27305e-06
-2.56225e-07
-2.20131e-06
-2.79553e-07
-2.12382e-06
-3.02974e-07
-2.0406e-06