/*--------------------------------*- C++ -*----------------------------------*\
  =========                 |
  \\      /  F ield         | OpenFOAM: The Open Source CFD Toolbox
   \\    /   O peration     | Website:  https://openfoam.org
    \\  /    A nd           | Version:  11
     \\/     M anipulation  |
\*---------------------------------------------------------------------------*/
FoamFile
{
    format      ascii;
    class       volScalarField::Internal;
    location    "100";
    object      tmp<kEpsilon:G>;
}
// * * * * * * * * * * * * * * * * * * * * * * * * * * * * * * * * * * * * * //

dimensions      [0 2 -3 0 0 0 0];

value           nonuniform List<scalar> 
12225
(
0
0
0
0
0
0
0
0
0
0
0
0
0
0
0
0
0
0
947.141
499.212
262.494
277.652
380.029
495.5
605.259
716.49
803.084
890.981
951.718
1013.3
1052.81
1093.95
1124.93
1151.55
1217.79
1190.49
86.0752
123.047
55.4803
17.201
5.16932
4.38195
8.7832
16.6729
26.6009
38.3997
50.9312
64.1695
77.7617
90.7367
105.12
116.577
134.801
139.141
5.16787
1.72386
0.642622
0.703818
0.467339
0.186597
0.028345
0.191864
0.796913
1.8964
3.47849
5.48965
7.9784
10.6846
14.0633
17.3607
21.9628
25.512
0.22922
0.132241
0.146864
0.311073
0.421427
0.399934
0.281908
0.145727
0.0500645
0.0209347
0.0768726
0.228657
0.493611
0.86382
1.40111
2.04233
2.92335
3.745
0.178498
0.187238
0.262598
0.315946
0.316795
0.309715
0.280208
0.2274
0.168868
0.112025
0.0640785
0.0306022
0.0185833
0.0348053
0.0905537
0.192196
0.348558
0.537085
0.127574
0.209354
0.228144
0.208871
0.206695
0.222944
0.228532
0.214716
0.192156
0.164693
0.134916
0.104099
0.0762569
0.0553795
0.0474138
0.0621182
0.10598
0.184213
0.0980578
0.14736
0.157354
0.153659
0.162596
0.181024
0.190979
0.187914
0.179066
0.167063
0.152536
0.135607
0.118726
0.104711
0.0984715
0.107744
0.140412
0.199093
0.0746211
0.103825
0.120332
0.127481
0.137654
0.151665
0.160648
0.161545
0.158512
0.153722
0.147389
0.13981
0.132532
0.128119
0.130427
0.144935
0.177625
0.227056
0.0566463
0.0772108
0.096021
0.106497
0.115919
0.127319
0.135903
0.139033
0.139029
0.13786
0.13601
0.133851
0.132766
0.134755
0.1428
0.16006
0.190428
0.229741
0.0428842
0.0583438
0.0762839
0.0880392
0.0975048
0.107687
0.115974
0.120334
0.122107
0.122997
0.123714
0.124734
0.127186
0.132588
0.142962
0.159902
0.185418
0.214952
0.0329319
0.0452603
0.061687
0.074055
0.0836972
0.0931159
0.101035
0.10601
0.108848
0.110953
0.113116
0.115837
0.119999
0.126702
0.137219
0.152219
0.172635
0.194359
0.0250172
0.0349883
0.0498035
0.0623981
0.0722397
0.081205
0.0888722
0.0942813
0.097902
0.100845
0.103884
0.107515
0.112389
0.119233
0.12878
0.141192
0.156834
0.172363
0.0180047
0.0260042
0.0390121
0.0512767
0.0612131
0.0699063
0.0773944
0.0831452
0.087417
0.0910155
0.0946194
0.098691
0.103665
0.109958
0.117897
0.127369
0.138486
0.148699
0.0120279
0.0185229
0.029816
0.0413833
0.051201
0.0596672
0.0669901
0.0729359
0.0776525
0.0816741
0.0855348
0.0896131
0.0941946
0.0994707
0.105518
0.11213
0.119356
0.125408
0.00718558
0.0125491
0.0223064
0.0329755
0.0424717
0.050693
0.0578168
0.063774
0.0686587
0.0728117
0.0766003
0.0803028
0.0841182
0.0881297
0.0923074
0.0964537
0.100629
0.103735
0.00356623
0.00811894
0.0166208
0.026375
0.0354126
0.0433276
0.0501856
0.0559664
0.0607367
0.0647206
0.0681518
0.0712211
0.0740803
0.0767984
0.0793402
0.0815689
0.0835326
0.0847123
0.00128973
0.00532679
0.01294
0.0219328
0.0304572
0.0379619
0.0444249
0.0498251
0.0542056
0.0577315
0.0605711
0.0628591
0.0647251
0.0662639
0.06748
0.0683179
0.0687696
0.0687882
0.000662347
0.00451797
0.0117824
0.0204298
0.0285937
0.0356809
0.0416695
0.0465365
0.0503107
0.0531416
0.055202
0.0566234
0.0575365
0.0580549
0.0582248
0.0580649
0.0574916
0.0568695
0.00196904
0.00609131
0.0138163
0.0227658
0.0308335
0.0375879
0.043161
0.0475213
0.0506643
0.0527641
0.0540523
0.0546966
0.0548437
0.0546117
0.0540606
0.053248
0.0520431
0.0510477
0.00461902
0.00941733
0.0182774
0.0278877
0.0358321
0.0421717
0.0473336
0.0512274
0.0537797
0.0552362
0.0558913
0.0559491
0.0555413
0.0547916
0.053754
0.0525294
0.0509498
0.0497532
0.00859159
0.0148528
0.0254157
0.0356191
0.0434174
0.0494554
0.0541922
0.0573878
0.0590904
0.0597818
0.0598359
0.0594066
0.0585705
0.0574296
0.056044
0.0545323
0.0527098
0.0513824
0.0138544
0.023896
0.0363642
0.0448584
0.0515718
0.0581709
0.0635295
0.0663158
0.0669579
0.0666146
0.0658614
0.0647672
0.0633504
0.0616977
0.0598664
0.0579807
0.0558387
0.0542178
0.0213177
0.0421869
0.0595606
0.0610564
0.060551
0.0648307
0.0709811
0.0749498
0.0762495
0.0762068
0.0753575
0.0737252
0.0713834
0.06858
0.0654477
0.0622165
0.0586768
0.0557184
0.0430415
0.0753875
0.0940755
0.105677
0.0983672
0.0915158
0.0890564
0.0878348
0.0863256
0.0844312
0.0813831
0.0767635
0.0707364
0.0639432
0.0567992
0.0498696
0.0431813
0.0376277
0.0799175
0.213213
0.0681922
0.0796613
0.168965
0.216699
0.216032
0.191066
0.159765
0.128966
0.0996507
0.0731305
0.0510886
0.0352721
0.0267742
0.0264208
0.034242
0.0502245
0.667754
0.127119
0.31531
0.504771
0.372424
0.294926
0.228954
0.141158
0.0602
0.0115419
0.0108561
0.0689487
0.190623
0.377277
0.623951
0.928704
1.27765
1.66818
32.2321
70.906
43.2341
18.2653
7.06986
2.67377
1.11649
1.01117
1.82083
3.29071
5.26522
7.64399
10.2863
13.1703
16.1448
19.2426
22.2629
25.3093
455.616
257.632
100.992
70.5527
91.62
128.042
167.923
205.947
241.076
273.802
302.917
329.575
352.886
374.286
392.829
410.307
425.707
440.791
0
0
0
0
0
0
0
0
0
0
0
0
0
0
0
0
0
0
0
0
0
0
0
0
0
0
0
0
0
0
0
0
0
0
0
0
0
0
0
5.02729
6.50299
8.10465
9.96697
12.0723
14.454
17.1124
20.0523
23.2606
26.7297
30.4363
34.3663
38.4904
42.792
47.2402
51.8204
56.5038
61.2798
66.1232
71.0285
75.9747
80.9611
85.9706
91.0055
96.0515
101.113
106.178
111.252
116.325
121.403
126.477
131.554
136.624
141.694
146.757
151.816
156.866
161.91
166.944
171.97
176.986
181.992
186.989
191.975
196.954
201.921
206.884
211.838
216.792
221.742
226.704
231.669
236.662
241.67
246.722
251.803
256.944
262.125
267.377
272.661
277.989
283.275
288.462
292.813
299.553
306.178
311.644
317.688
323.307
329.149
334.677
342.754
348.243
357.232
364.159
371.603
379.181
385.787
392.187
398.471
403.813
408.124
410.029
414.451
421.786
422.941
425.73
431.33
430.361
434.476
431.591
433.616
429.361
428.928
423.654
420.601
413.308
406.983
400.71
391.056
381.018
369.604
357.122
343.608
329.143
313.793
297.647
280.781
263.321
245.378
227.085
208.569
189.964
171.358
152.9
134.721
116.935
99.65
82.9599
66.941
51.7014
37.342
24.0784
12.6667
9.05582
17.6817
28.3812
38.8647
48.7677
58.0031
66.5532
74.4324
81.6332
88.1829
94.1574
99.5886
104.477
108.863
112.792
116.313
119.47
122.29
124.8
127.032
129.016
130.774
132.328
133.698
134.898
135.939
136.821
137.552
138.069
138.453
138.322
138.204
136.192
134.48
121.522
0
0.151362
0.0890566
0.012773
0.0194515
0.160412
0.440486
0.860782
1.40682
2.05755
2.81908
3.62882
4.35691
4.84984
5.29956
5.96618
7.63898
8.995
10.1105
11.2968
12.7767
14.3659
15.5853
16.5872
17.4023
17.9028
18.1314
18.1131
17.869
17.4192
16.7921
16.0228
15.1492
14.208
13.2333
12.2545
11.2965
10.3786
9.51477
8.71381
7.98101
7.31759
6.72303
6.19463
5.72957
5.32342
4.97217
4.67103
4.41613
4.20321
4.02898
3.88975
3.78274
3.70487
3.65406
3.6278
3.62437
3.64169
3.67863
3.73358
3.80556
3.89322
3.99591
4.11264
4.24294
4.38608
4.54173
4.70946
4.8892
5.08082
5.2843
5.49976
5.72735
5.96791
6.22223
6.49129
6.77544
7.07557
7.39293
7.73003
8.08814
8.46975
8.87726
9.32131
9.80985
10.2747
10.7264
11.3172
11.9382
12.5855
13.2876
14.0478
14.8864
15.7468
16.7298
17.7261
18.9011
20.1198
21.4768
22.9437
24.4858
26.1382
27.8575
29.5871
31.2431
32.7717
34.2289
35.9337
37.2939
38.9867
40.9682
43.0242
45.3825
47.9983
50.7089
53.2768
56.5847
59.787
63.2459
67.0492
70.8674
74.9301
79.2266
83.5317
87.8775
92.1969
96.4487
100.585
104.54
108.256
111.686
114.778
117.495
119.806
121.7
123.148
124.15
124.71
124.852
124.629
124.158
123.407
122.107
120.277
117.259
112.497
106.943
101.303
95.7438
90.4243
85.4135
80.7356
76.3981
72.3827
68.6816
65.2823
62.1883
59.3571
56.7487
54.3606
52.1801
50.1932
48.3736
46.7064
45.1833
43.793
42.5227
41.3647
40.3103
39.3512
38.4812
37.6969
36.9931
36.3962
35.9047
35.7164
35.9533
37.9492
42.7488
63.3183
0
0.0735415
0.155396
0.2136
0.421286
0.789484
1.32454
2.04028
2.93914
4.01085
5.2498
6.63421
8.05597
9.3814
10.667
12.0184
13.601
14.9242
15.9313
16.6983
17.4213
18.1464
18.7949
19.2016
19.3946
19.403
19.2206
18.894
18.4625
17.9706
17.4539
16.9415
16.4567
16.0158
15.6302
15.3072
15.0509
14.8616
14.739
14.6801
14.6826
14.7428
14.858
15.0246
15.2402
15.5018
15.8075
16.1549
16.5426
16.9686
17.4324
17.9328
18.4693
19.0413
19.6488
20.2917
20.9704
21.6848
22.4357
23.2236
24.0495
24.9141
25.8185
26.7638
27.7515
28.7827
29.859
30.9817
32.1518
33.3711
34.641
35.9629
37.3374
38.7658
40.2498
41.7906
43.3872
45.0378
46.7408
48.4948
50.2957
52.1367
54.0109
55.9134
57.8934
59.9178
61.8725
63.8332
65.8077
67.7849
69.7025
71.5884
73.4676
75.2505
77.0217
78.6324
80.2074
81.6563
83.0338
84.3218
85.51
86.6202
87.7003
88.8964
90.3682
91.9506
93.7238
95.939
98.1252
100.469
103.174
106.114
109.446
113.037
116.778
120.631
125.165
129.908
134.947
140.26
145.706
151.426
157.357
163.298
169.169
174.836
180.194
185.116
189.496
193.213
196.181
198.311
199.551
199.859
199.231
197.668
195.213
191.919
187.936
183.332
177.983
171.611
163.924
155.204
146.358
138.266
130.849
123.63
116.501
109.539
102.827
96.4165
90.345
84.6332
79.2901
74.3081
69.712
65.4627
61.5172
57.8819
54.5392
51.472
48.6521
46.0638
43.6929
41.5216
39.5303
37.7083
36.0438
34.524
33.1392
31.8858
30.7638
29.7988
29.0286
28.6255
28.8221
30.4116
33.3841
41.583
0
0.378617
0.789159
1.09159
1.50541
2.04921
2.73771
3.58457
4.59424
5.76273
7.09043
8.55689
10.0804
11.5545
12.9487
14.3308
15.725
16.9195
17.8372
18.5056
18.9947
19.3905
19.6842
19.8715
19.9605
19.971
19.9105
19.7925
19.6477
19.5005
19.3702
19.2735
19.2219
19.2247
19.2873
19.4129
19.6036
19.8601
20.1828
20.5711
21.0246
21.5424
22.1236
22.7668
23.4711
24.235
25.0575
25.9373
26.8738
27.8661
28.914
30.0175
31.1771
32.3932
33.6668
34.9993
36.3919
37.8462
39.3639
40.947
42.5975
44.3173
46.1083
47.9725
49.9116
51.9274
54.0213
56.1945
58.4474
60.7806
63.194
65.6872
68.2587
70.9067
73.6296
76.4252
79.2882
82.2119
85.1892
88.2132
91.2742
94.362
97.4681
100.59
103.737
106.874
109.923
112.915
115.852
118.719
121.484
124.148
126.726
129.167
131.506
133.669
135.724
137.643
139.465
141.194
142.848
144.462
146.111
147.886
149.833
151.83
153.861
156.139
158.507
161.099
163.977
167.14
170.673
174.498
178.651
183.099
188.1
193.365
198.985
204.905
211.074
217.499
224.104
230.712
237.189
243.376
249.115
254.253
258.639
262.134
264.62
265.998
266.199
265.188
262.967
259.56
255.053
249.555
243.044
235.348
226.313
216.235
205.639
194.806
183.96
173.417
163.269
153.413
143.832
134.581
125.728
117.318
109.379
101.927
94.9695
88.4953
82.5032
76.9731
71.8746
67.1967
62.8993
58.9609
55.3415
52.0221
48.9852
46.2067
43.6615
41.3371
39.2164
37.2835
35.5293
33.9497
32.5504
31.3658
30.4556
30.0016
30.2605
32.0422
35.9185
42.9664
0
1.01797
1.94192
2.62732
3.27021
3.94805
4.70069
5.54739
6.4964
7.549
8.70614
9.9556
11.2505
12.5248
13.734
14.8749
15.9412
16.8661
17.6019
18.1432
18.5164
18.7571
18.898
18.9782
19.0323
19.0814
19.139
19.2161
19.3224
19.468
19.6641
19.9193
20.2422
20.6396
21.1169
21.679
22.3285
23.0672
23.8957
24.814
25.8212
26.916
28.0969
29.3619
30.7091
32.1369
33.6436
35.2281
36.8895
38.6275
40.4424
42.3351
44.3071
46.3601
48.4968
50.7199
53.0326
55.4382
57.9405
60.5429
63.2493
66.063
68.9873
72.025
75.1786
78.45
81.8405
85.3506
88.9798
92.7268
96.5894
100.564
104.646
108.83
113.108
117.474
121.917
126.423
130.979
135.571
140.181
144.794
149.392
153.966
158.501
162.973
167.328
171.549
175.628
179.551
183.301
186.871
190.258
193.444
196.437
199.209
201.788
204.176
206.396
208.463
210.395
212.236
214.034
215.848
217.683
219.495
221.277
223.158
225.152
227.331
229.716
232.345
235.326
238.663
242.362
246.44
250.949
255.805
261.072
266.687
272.61
278.837
285.256
291.733
298.091
304.17
309.771
314.728
318.853
321.995
323.997
324.748
324.155
322.181
318.817
314.126
308.087
300.602
291.53
281.006
269.413
257.086
244.301
231.332
218.424
205.804
193.532
181.602
170.039
158.907
148.266
138.168
128.638
119.696
111.347
103.582
96.3896
89.7465
83.6162
77.9781
72.7984
68.0619
63.7243
59.7571
56.1298
52.8146
49.7745
47.0007
44.4733
42.1758
40.0994
38.2416
36.6151
35.2631
34.2623
33.8011
34.1353
35.9528
39.8252
45.9076
0
1.82193
3.34055
4.50439
5.3891
6.16925
6.92487
7.68934
8.48148
9.31106
10.1808
11.0833
11.9959
12.8851
13.721
14.4882
15.1764
15.7651
16.2363
16.5856
16.8255
16.9817
17.0853
17.1699
17.2664
17.3976
17.579
17.8216
18.1351
18.5284
19.0106
19.5901
20.2744
21.0702
21.982
23.0132
24.1659
25.4409
26.8381
28.3561
29.9929
31.7459
33.6121
35.5884
37.6719
39.86
42.1507
44.5425
47.0349
49.6278
52.3226
55.121
58.0261
61.0413
64.1712
67.4206
70.7951
74.3005
77.9428
81.7278
85.6615
89.7494
93.9962
98.4064
102.983
107.729
112.645
117.73
122.984
128.402
133.98
139.71
145.584
151.59
157.716
163.946
170.264
176.649
183.079
189.529
195.975
202.392
208.753
215.038
221.223
227.276
233.151
238.817
244.249
249.423
254.33
258.949
263.28
267.311
271.039
274.452
277.561
280.373
282.893
285.147
287.145
288.938
290.558
292.058
293.436
294.691
295.837
296.967
298.129
299.376
300.772
302.412
304.311
306.497
309.053
312.04
315.438
319.228
323.436
328.047
333.049
338.407
344.021
349.754
355.434
360.878
365.885
370.257
373.797
376.319
377.647
377.647
376.209
373.293
368.82
362.665
354.689
344.888
333.516
320.896
307.325
293.104
278.504
263.779
249.151
234.797
220.788
207.161
193.966
181.273
169.145
157.634
146.767
136.564
127.031
118.16
109.933
102.322
95.2975
88.8323
82.8888
77.4383
72.4444
67.886
63.7228
59.9232
56.4526
53.2875
50.4064
47.7885
45.4298
43.3322
41.5151
40.0276
38.957
38.4878
38.8563
40.605
44.136
49.2228
0
2.59858
4.66198
6.29437
7.40117
8.25812
8.9847
9.62962
10.2236
10.7867
11.3297
11.8555
12.3595
12.8313
13.26
13.6386
13.9638
14.2322
14.4427
14.5997
14.7152
14.808
14.9014
15.0193
15.185
15.4182
15.7347
16.147
16.6664
17.303
18.0661
18.9645
20.0058
21.1962
22.5406
24.0422
25.7026
27.5219
29.4987
31.6305
33.9139
36.3448
38.9188
41.6318
44.4796
47.4589
50.5673
53.8031
57.1661
60.6572
64.2786
68.0336
71.927
75.9645
80.1528
84.4997
89.0135
93.703
98.5771
103.645
108.914
114.394
120.09
126.01
132.158
138.536
145.146
151.987
159.056
166.348
173.852
181.56
189.455
197.523
205.741
214.089
222.538
231.06
239.623
248.193
256.733
265.209
273.584
281.826
289.899
297.764
305.374
312.69
319.668
326.279
332.498
338.311
343.711
348.684
353.222
357.314
360.961
364.16
366.919
369.25
371.182
372.758
374.018
375.002
375.723
376.185
376.442
376.575
376.637
376.663
376.739
376.929
377.328
377.996
379.019
380.427
382.234
384.449
387.12
390.248
393.85
397.876
402.244
406.805
411.408
415.848
419.935
423.43
426.14
427.841
428.342
427.477
425.072
420.937
414.885
406.768
396.701
384.92
371.69
357.286
342.002
326.118
309.903
293.592
277.403
261.492
245.95
230.831
216.207
202.146
188.716
175.965
163.927
152.616
142.04
132.19
123.046
114.577
106.755
99.5464
92.9142
86.8248
81.2416
76.135
71.4782
67.2343
63.3642
59.8381
56.6329
53.7298
51.123
48.8136
46.8278
45.2188
44.0775
43.5745
43.9132
45.5048
48.5418
52.6464
0
3.22763
5.67677
7.65508
8.92378
9.82424
10.504
11.0236
11.4249
11.739
11.9863
12.1804
12.3305
12.4424
12.5211
12.5715
12.5997
12.6123
12.6169
12.623
12.6434
12.6933
12.7899
12.9512
13.1947
13.5366
13.9917
14.5732
15.2934
16.1636
17.1946
18.396
19.7761
21.3418
23.0981
25.0482
27.1932
29.5325
32.0639
34.7839
37.6877
40.7704
44.0263
47.4503
51.0376
54.7846
58.6885
62.7482
66.9641
71.3382
75.8744
80.5779
85.4557
90.5161
95.7689
101.225
106.896
112.795
118.933
125.323
131.978
138.907
146.12
153.627
161.432
169.541
177.955
186.672
195.687
204.993
214.578
224.425
234.516
244.826
255.328
265.989
276.774
287.643
298.552
309.455
320.305
331.055
341.656
352.064
362.231
372.106
381.641
390.782
399.471
407.673
415.349
422.489
429.075
435.088
440.514
445.341
449.561
453.158
456.146
458.529
460.354
461.67
462.5
462.886
462.871
462.484
461.742
460.724
459.5
458.131
456.688
455.258
453.936
452.824
452
451.519
451.415
451.727
452.515
453.815
455.655
458.002
460.77
463.828
467.018
470.157
473.03
475.393
477.02
477.674
477.07
474.969
471.099
465.2
457.204
447.208
435.366
421.885
407.015
391.025
374.197
356.807
339.115
321.354
303.729
286.399
269.466
253.006
237.096
221.809
207.212
193.354
180.265
167.962
156.45
145.719
135.748
126.506
117.961
110.078
102.818
96.1441
90.0191
84.4125
79.2904
74.628
70.3851
66.5237
63.0168
59.8453
57.0042
54.4994
52.3572
50.6282
49.4014
48.8273
49.0682
50.4264
52.9014
56.0943
0
3.62619
6.24265
8.39267
9.73265
10.631
11.2481
11.6519
11.8922
12.0093
12.0319
11.9818
11.8775
11.7352
11.57
11.3961
11.2269
11.0751
10.953
10.8729
10.8473
10.8896
11.0137
11.2338
11.5644
12.0196
12.6136
13.3598
14.2715
15.3612
16.6407
18.1208
19.8106
21.7177
23.8474
26.203
28.7855
31.5938
34.6253
37.8757
41.3399
45.0119
48.8857
52.9559
57.2174
61.6667
66.3017
71.122
76.1293
81.3275
86.7225
92.3221
98.1358
104.175
110.454
116.986
123.788
130.876
138.265
145.973
154.015
162.404
171.155
180.278
189.78
199.669
209.945
220.606
231.647
243.057
254.821
266.917
279.321
292.001
304.921
318.039
331.308
344.677
358.09
371.489
384.812
397.999
410.988
423.721
436.137
448.175
459.774
470.865
481.396
491.302
500.549
509.116
516.975
524.106
530.49
536.111
540.945
544.986
548.227
550.704
552.43
553.497
553.95
553.802
553.078
551.809
550.055
547.883
545.367
542.572
539.569
536.449
533.332
530.341
527.558
525.049
522.869
521.094
519.793
519.049
518.888
519.312
520.218
521.502
522.992
524.517
525.861
526.744
526.905
526.069
523.86
519.969
514.175
506.399
496.625
484.936
471.467
456.427
440.044
422.587
404.325
385.534
366.466
347.355
328.396
309.758
291.55
273.866
256.784
240.384
224.728
209.867
195.828
182.628
170.267
158.737
148.015
138.069
128.864
120.364
112.528
105.318
98.6953
92.6252
87.0738
82.0147
77.4177
73.237
69.4432
66.0171
62.9534
60.2584
57.9589
56.1049
54.774
54.0905
54.1742
55.2414
57.1377
59.5213
0
3.76724
6.32627
8.46499
9.77448
10.6173
11.1535
11.454
11.574
11.5594
11.4439
11.2541
11.013
10.7414
10.459
10.184
9.93321
9.72217
9.565
9.47479
9.46401
9.54485
9.72962
10.031
10.4622
11.0368
11.7687
12.6722
13.7613
15.0498
16.5506
18.2755
20.2346
22.4363
24.8866
27.5889
30.5444
33.7523
37.2098
40.9126
44.8555
49.0325
53.4379
58.0662
62.9133
67.9762
73.2539
78.7477
84.4612
90.4005
96.5745
102.994
109.671
116.622
123.864
131.415
139.296
147.527
156.129
165.122
174.525
184.357
194.634
205.37
216.575
228.256
240.415
253.05
266.155
279.714
293.71
308.116
322.901
338.026
353.445
369.106
384.95
400.913
416.928
432.92
448.815
464.538
480.013
495.164
509.919
524.203
537.941
551.061
563.494
575.166
586.041
596.079
605.255
613.545
620.926
627.377
632.864
637.386
640.927
643.534
645.259
646.187
646.33
645.697
644.337
642.294
639.622
636.389
632.666
628.526
624.044
619.316
614.483
609.661
604.945
600.411
596.137
592.23
588.781
585.886
583.546
581.793
580.586
579.807
579.289
578.869
578.336
577.365
575.63
572.765
568.496
562.597
554.903
545.325
533.843
520.523
505.498
488.959
471.129
452.265
432.633
412.504
392.131
371.743
351.537
331.682
312.294
293.479
275.322
257.901
241.279
225.504
210.601
196.583
183.452
171.196
159.789
149.2
139.392
130.327
121.963
114.26
107.179
100.681
94.7314
89.3026
84.3685
79.8816
75.8118
72.1399
68.8599
65.9778
63.5184
61.5262
60.068
59.2422
59.1223
59.8617
61.1936
62.8775
0
3.67445
5.98335
7.94797
9.13221
9.86593
10.3015
10.5088
10.5464
10.4624
10.2925
10.0643
9.80096
9.52298
9.24916
8.99682
8.78196
8.61927
8.52214
8.50297
8.57345
8.74517
9.02987
9.43991
9.98845
10.6895
11.5578
12.6088
13.8577
15.3197
17.009
18.9386
21.1202
23.563
26.2738
29.2571
32.5146
36.046
39.8493
43.9206
48.2554
52.8484
57.6946
62.7897
68.1306
73.7161
79.5469
85.6263
91.9605
98.5585
105.432
112.596
120.066
127.862
136.004
144.517
153.425
162.752
172.524
182.765
193.498
204.746
216.527
228.859
241.754
255.221
269.262
283.875
299.05
314.771
331.016
347.753
364.943
382.539
400.485
418.719
437.169
455.758
474.404
493.019
511.513
529.794
547.772
565.357
582.461
598.993
614.87
630.015
644.334
657.76
670.233
681.719
692.191
701.622
709.988
717.255
723.402
728.411
732.285
735.093
736.891
737.736
737.646
736.637
734.766
732.078
728.631
724.487
719.715
714.373
708.545
702.345
695.91
689.351
682.762
676.233
669.882
663.831
658.215
653.091
648.523
644.549
641.138
638.157
635.476
632.885
630.129
626.896
622.898
617.833
611.464
603.557
593.965
582.564
569.357
554.393
537.805
519.763
500.49
480.227
459.246
437.807
416.168
394.553
373.162
352.165
331.671
311.81
292.664
274.309
256.806
240.197
224.507
209.75
195.923
183.008
170.98
159.806
149.449
139.868
131.023
122.869
115.366
108.475
102.159
96.3888
91.1359
86.3564
82.0213
78.1116
74.62
71.5515
68.927
66.7844
65.1769
64.1786
63.824
64.2181
65.0179
66.1057
0
3.39956
5.32305
6.99421
7.97886
8.55903
8.87362
8.99285
8.97675
8.8734
8.71814
8.53676
8.3491
8.17125
8.01697
7.89853
7.82719
7.81352
7.8676
7.99934
8.2188
8.53659
8.96421
9.51433
10.2008
11.0389
12.0447
13.2354
14.6282
16.2399
18.0866
20.1833
22.5431
25.1769
28.0931
31.2972
34.7925
38.58
42.6589
47.0267
51.68
56.6152
61.8287
67.3181
73.0822
79.1219
85.4404
92.0435
98.9401
106.142
113.666
121.528
129.749
138.352
147.363
156.809
166.718
177.12
188.044
199.516
211.565
224.215
237.489
251.407
265.982
281.227
297.143
313.728
330.971
348.85
367.34
386.402
405.99
426.047
446.509
467.3
488.335
509.525
530.77
551.968
573.013
593.798
614.216
634.163
653.534
672.229
690.151
707.209
723.303
738.357
752.304
765.116
776.762
787.214
796.448
804.427
811.14
816.564
820.735
823.705
825.548
826.295
825.98
824.623
822.291
819.025
814.886
809.93
804.225
797.838
790.853
783.397
775.581
767.507
759.265
750.957
742.73
734.722
727.078
719.867
713.189
707.031
701.344
696.046
690.964
685.906
680.619
674.854
668.369
660.917
652.278
642.247
630.661
617.43
602.522
585.961
567.857
548.368
527.704
506.107
483.841
461.17
438.343
415.591
393.107
371.072
349.571
328.749
308.696
289.49
271.184
253.821
237.419
222.001
207.552
194.049
181.463
169.764
158.912
148.869
139.59
131.029
123.143
115.894
109.242
103.159
97.6093
92.5544
87.9672
83.8294
80.1321
76.8784
74.0845
71.7805
70.006
68.8126
68.2039
68.2509
68.5614
69.1474
0
3.00816
4.47544
5.78483
6.52277
6.91889
7.09765
7.13099
7.08028
6.99325
6.90354
6.83328
6.79657
6.80234
6.85642
6.96302
7.1258
7.34857
7.63587
7.99331
8.428
8.94883
9.56666
10.2944
11.147
12.141
13.2947
14.6273
16.1584
17.9075
19.8931
22.1334
24.6431
27.4357
30.5215
33.9085
37.6023
41.6059
45.9208
50.5464
55.4818
60.7256
66.2766
72.1349
78.3018
84.7807
91.5774
98.7005
106.161
113.975
122.16
130.736
139.729
149.165
159.074
169.485
180.43
191.942
204.052
216.791
230.189
244.274
259.071
274.599
290.876
307.912
325.711
344.268
363.566
383.582
404.285
425.631
447.568
470.029
492.937
516.206
539.739
563.429
587.164
610.826
634.292
657.441
680.151
702.301
723.774
744.457
764.24
783.019
800.699
817.183
832.416
846.361
858.987
870.277
880.201
888.74
895.872
901.611
905.962
909.021
910.827
911.437
910.878
909.197
906.437
902.654
897.901
892.234
885.716
878.431
870.467
861.937
852.933
843.537
833.834
823.947
814.022
804.221
794.654
785.411
776.531
768.035
759.887
751.934
744.124
736.311
728.326
720.074
711.265
701.687
691.033
679.087
665.677
650.627
633.955
615.725
596.031
575.032
552.927
529.963
506.4
482.501
458.511
434.66
411.136
388.141
365.706
344.034
323.189
303.241
284.239
266.22
249.195
233.187
218.192
204.168
191.092
178.929
167.641
157.192
147.533
138.611
130.384
122.813
115.861
109.494
103.674
98.3663
93.5448
89.1919
85.2978
81.8629
78.8981
76.4256
74.4718
73.0693
72.1978
71.9081
71.7767
71.9438
0
2.56803
3.56907
4.49946
4.97289
5.1713
5.2078
5.15832
5.08678
5.04102
5.05243
5.13843
5.30616
5.55597
5.88422
6.28549
6.75419
7.28578
7.87768
8.5298
9.24497
10.0293
10.8922
11.8463
12.9072
14.0932
15.4253
16.9246
18.6143
20.517
22.6548
25.05
27.7196
30.6808
33.9468
37.5287
41.435
45.6719
50.244
55.1541
60.4043
65.9958
71.9302
78.2095
84.8383
91.8226
99.1706
106.894
115.006
123.524
132.47
141.865
151.741
162.122
173.04
184.525
196.613
209.335
222.727
236.82
251.646
267.234
283.608
300.79
318.796
337.637
357.314
377.819
399.135
421.235
444.083
467.63
491.814
516.56
541.782
567.38
593.245
619.257
645.288
671.207
696.875
722.159
746.92
771.025
794.346
816.752
838.133
858.371
877.368
895.022
911.277
926.098
939.457
951.343
961.737
970.635
978.019
983.919
988.302
991.337
993.011
993.415
992.579
990.556
987.374
983.099
977.771
971.445
964.174
956.025
947.097
937.48
927.258
916.502
905.298
893.798
882.17
870.554
859.037
847.644
836.381
825.353
814.55
804.077
793.757
783.57
773.425
762.895
751.801
739.862
726.951
712.848
697.403
680.418
662.034
642.192
620.985
598.556
575.108
550.882
526.14
501.137
476.119
451.304
426.88
403.054
379.825
357.409
335.872
315.282
295.683
277.105
259.546
243.074
227.64
213.191
199.708
187.158
175.502
164.7
154.71
145.475
136.952
129.102
121.889
115.273
109.217
103.684
98.6515
94.1016
90.0233
86.4152
83.2827
80.6398
78.5012
76.8843
75.7515
75.1435
74.6186
74.4385
0
2.13411
2.7062
3.28103
3.49943
3.50574
3.40741
3.28692
3.21194
3.23082
3.37231
3.6488
4.06008
4.59773
5.24854
5.99732
6.82908
7.73063
8.69165
9.70563
10.7704
11.8882
13.0669
14.3178
15.6575
17.1059
18.6867
20.4237
22.3431
24.4707
26.832
29.4515
32.3526
35.5567
39.0819
42.9439
47.1555
51.7272
56.6677
61.984
67.6818
73.7663
80.2421
87.1148
94.3901
102.076
110.183
118.723
127.711
137.164
147.105
157.554
168.539
180.088
192.23
204.999
218.426
232.544
247.391
262.993
279.381
296.581
314.617
333.514
353.286
373.943
395.487
417.907
441.184
465.285
490.169
515.78
542.05
568.895
596.218
623.906
651.84
679.884
707.9
735.743
763.262
790.309
816.735
842.398
867.159
890.879
913.426
934.7
954.578
972.981
989.847
1005.13
1018.83
1030.93
1041.44
1050.35
1057.69
1063.45
1067.6
1070.36
1071.69
1071.68
1070.42
1067.9
1064.17
1059.27
1053.25
1046.16
1038.04
1028.96
1019.02
1008.3
996.868
984.775
972.122
959.041
945.624
932.034
918.375
904.732
891.269
877.972
865.078
852.325
839.758
827.144
814.385
801.37
787.808
773.718
758.743
742.66
725.321
706.604
686.515
665.08
642.387
618.576
593.85
568.447
542.627
516.64
490.723
465.087
439.908
415.352
391.513
368.518
346.448
325.366
305.31
286.306
268.348
251.477
235.684
220.898
207.096
194.241
182.291
171.224
160.985
151.499
142.739
134.661
127.224
120.395
114.135
108.409
103.192
98.4675
94.2227
90.4548
87.1622
84.3528
82.0314
80.202
78.8187
77.9157
77.044
76.5794
0
1.74596
1.94404
2.21034
2.19972
2.03423
1.82339
1.65852
1.61161
1.73096
2.04193
2.5513
3.25164
4.12646
5.15413
6.31104
7.57406
8.92234
10.3386
11.8102
13.3301
14.8976
16.5183
18.2013
19.963
21.8242
23.8098
25.9471
28.2671
30.8003
33.5781
36.6302
39.985
43.6689
47.7052
52.115
56.9165
62.1258
67.7564
73.8199
80.3262
87.2838
94.7005
102.584
110.941
119.779
129.108
138.939
149.284
160.158
171.58
183.57
196.15
209.345
223.181
237.683
252.88
268.8
285.467
302.911
321.156
340.227
360.147
380.934
402.606
425.166
448.618
472.947
498.13
524.131
550.904
578.389
606.508
635.172
664.269
693.683
723.27
752.896
782.407
811.649
840.459
868.68
896.158
922.745
948.284
972.633
995.665
1017.26
1037.32
1055.77
1072.53
1087.59
1100.93
1112.55
1122.49
1130.76
1137.41
1142.4
1145.72
1147.62
1148.05
1147.14
1144.95
1141.45
1136.69
1130.73
1123.59
1115.31
1105.95
1095.59
1084.3
1072.09
1059.03
1045.19
1030.69
1015.71
1000.45
984.961
969.371
953.965
938.585
923.398
908.278
893.296
878.483
863.646
848.954
834.058
818.733
802.776
785.965
768.109
749.075
728.775
707.217
684.419
660.458
635.47
609.653
583.251
556.52
529.71
503.044
476.725
450.92
425.784
401.414
377.931
355.411
333.913
313.473
294.116
275.843
258.666
242.567
227.505
213.442
200.336
188.143
176.832
166.368
156.677
147.717
139.449
131.83
124.831
118.407
112.516
107.139
102.259
97.8606
93.9413
90.4959
87.5248
85.0232
82.989
81.3683
80.195
79.0177
78.327
0
1.4353
1.36904
1.40673
1.22756
0.946638
0.681511
0.53226
0.572955
0.84922
1.38148
2.17057
3.20348
4.45829
5.90845
7.52565
9.28211
11.1525
13.1152
15.154
17.2587
19.4258
21.6585
23.9663
26.3657
28.8796
31.5353
34.3647
37.4021
40.6821
44.24
48.111
52.3275
56.9242
61.9294
67.3699
73.2694
79.6484
86.5247
93.9119
101.823
110.267
119.253
128.786
138.872
149.517
160.724
172.497
184.842
197.764
211.276
225.386
240.111
255.466
271.465
288.125
305.465
323.503
342.259
361.752
382
403.026
424.837
447.458
470.894
495.161
520.256
546.166
572.865
600.32
628.482
657.29
686.665
716.509
746.706
777.124
807.624
838.055
868.266
898.093
927.367
955.927
983.617
1010.28
1035.77
1059.93
1082.62
1103.75
1123.23
1140.97
1156.91
1171.02
1183.28
1193.73
1202.42
1209.43
1214.76
1218.38
1220.3
1220.85
1219.87
1217.62
1214.02
1209.08
1202.85
1195.35
1186.62
1176.68
1165.6
1153.45
1140.29
1126.2
1111.21
1095.39
1078.89
1061.96
1044.68
1027.23
1009.71
992.089
974.493
957.074
939.769
922.876
906.21
889.656
873.105
856.401
839.328
821.713
803.32
783.98
763.574
742.047
719.389
695.616
670.788
645.031
618.537
591.554
564.332
537.108
510.092
483.471
457.403
432.025
407.448
383.775
361.082
339.425
318.838
299.346
280.949
263.646
247.417
232.228
218.041
204.813
192.514
181.093
170.506
160.697
151.623
143.241
135.504
128.382
121.837
115.829
110.335
105.336
100.818
96.778
93.1998
90.0821
87.4173
85.195
83.3578
81.9436
80.4978
79.6409
0
1.21193
1.00679
0.91864
0.654837
0.341337
0.106773
0.0554844
0.258432
0.755318
1.56142
2.67442
4.07959
5.75438
7.67252
9.80729
12.1328
14.6252
17.2628
20.0298
22.9172
25.9232
29.0519
32.3153
35.7276
39.3156
43.1102
47.1467
51.4622
56.0944
61.0811
66.4598
72.2654
78.5352
85.2989
92.5866
100.425
108.832
117.829
127.427
137.636
148.458
159.895
171.946
184.608
197.874
211.739
226.194
241.23
256.841
273.018
289.766
307.083
324.971
343.431
362.465
382.076
402.275
423.07
444.472
466.49
489.135
512.423
536.364
560.971
586.262
612.239
638.898
666.22
694.178
722.733
751.828
781.388
811.315
841.497
871.796
902.076
932.193
961.993
991.31