/*--------------------------------*- C++ -*----------------------------------*\
  =========                 |
  \\      /  F ield         | OpenFOAM: The Open Source CFD Toolbox
   \\    /   O peration     | Website:  https://openfoam.org
    \\  /    A nd           | Version:  11
     \\/     M anipulation  |
\*---------------------------------------------------------------------------*/
FoamFile
{
    format      ascii;
    class       volVectorField;
    location    "100";
    object      U;
}
// * * * * * * * * * * * * * * * * * * * * * * * * * * * * * * * * * * * * * //

dimensions      [0 1 -1 0 0 0 0];

internalField   nonuniform List<vector> 
12225
(
(9.85697 -0.886413 0)
(9.6666 -0.740745 0)
(9.45559 -0.429459 0)
(9.22424 -0.222191 0)
(9.00601 -0.106415 0)
(8.81361 -0.0458098 0)
(8.64629 -0.0151084 0)
(8.50371 0.00055333 0)
(8.38134 0.0085223 0)
(8.27785 0.0124628 0)
(8.18823 0.0142567 0)
(8.11065 0.0153824 0)
(8.04162 0.0159428 0)
(7.97957 0.0165306 0)
(7.92105 0.0169726 0)
(7.86747 0.0188671 0)
(7.79344 0.019949 0)
(7.78301 0.0306793 0)
(10.0545 0.227556 0)
(10.121 0.326934 0)
(10.1196 0.261591 0)
(10.0855 0.186587 0)
(10.0432 0.13473 0)
(9.9964 0.101208 0)
(9.94354 0.0794245 0)
(9.88449 0.0647472 0)
(9.82285 0.0545124 0)
(9.75983 0.047023 0)
(9.69785 0.0414081 0)
(9.63721 0.0370862 0)
(9.57894 0.0337848 0)
(9.52319 0.031537 0)
(9.46913 0.0300632 0)
(9.42023 0.0317178 0)
(9.36617 0.0322792 0)
(9.34108 0.05647 0)
(10.0035 0.0579248 0)
(10.0303 0.0560255 0)
(10.056 0.0338212 0)
(10.0702 0.032958 0)
(10.0767 0.0407436 0)
(10.0775 0.0466825 0)
(10.072 0.0495498 0)
(10.0606 0.0505671 0)
(10.0451 0.0505664 0)
(10.0262 0.0499952 0)
(10.0051 0.0491601 0)
(9.98218 0.0483103 0)
(9.95806 0.0475985 0)
(9.93311 0.0473451 0)
(9.90722 0.0475327 0)
(9.88181 0.0499134 0)
(9.855 0.052771 0)
(9.83354 0.066015 0)
(9.99778 0.0110647 0)
(10.011 0.0266353 0)
(10.0349 0.0372031 0)
(10.0524 0.0481696 0)
(10.0641 0.0555801 0)
(10.073 0.0583657 0)
(10.0789 0.0586076 0)
(10.0816 0.0579628 0)
(10.0816 0.0570486 0)
(10.0797 0.0560419 0)
(10.0761 0.0550432 0)
(10.0711 0.0542185 0)
(10.0648 0.0536336 0)
(10.0576 0.053577 0)
(10.0494 0.0540992 0)
(10.0411 0.0564002 0)
(10.0326 0.0597009 0)
(10.0266 0.0680212 0)
(9.99935 0.0072131 0)
(10.009 0.0316926 0)
(10.0274 0.0439926 0)
(10.0416 0.0500353 0)
(10.0525 0.0537777 0)
(10.0624 0.055469 0)
(10.071 0.0558396 0)
(10.0775 0.05567 0)
(10.0823 0.0552917 0)
(10.0858 0.0548169 0)
(10.0881 0.0543339 0)
(10.0894 0.0539908 0)
(10.0899 0.0538807 0)
(10.0897 0.0542412 0)
(10.0888 0.0551922 0)
(10.088 0.0574247 0)
(10.0876 0.0606206 0)
(10.0892 0.0659365 0)
(10.0003 0.00919815 0)
(10.0083 0.0312191 0)
(10.0226 0.0410334 0)
(10.0348 0.0455328 0)
(10.0448 0.0492415 0)
(10.0544 0.0516584 0)
(10.0632 0.0527475 0)
(10.0706 0.053123 0)
(10.0768 0.0531819 0)
(10.082 0.053084 0)
(10.0864 0.0529399 0)
(10.0901 0.0528911 0)
(10.0932 0.0530477 0)
(10.0957 0.0535971 0)
(10.098 0.0546633 0)
(10.1004 0.0566069 0)
(10.1034 0.0592453 0)
(10.108 0.0626548 0)
(10.0004 0.00896939 0)
(10.0071 0.0271459 0)
(10.019 0.0365217 0)
(10.03 0.0415586 0)
(10.0393 0.0456581 0)
(10.0483 0.0484196 0)
(10.0567 0.0498126 0)
(10.0642 0.0504448 0)
(10.0707 0.0507361 0)
(10.0765 0.0508551 0)
(10.0816 0.0509133 0)
(10.0863 0.0510377 0)
(10.0904 0.0513381 0)
(10.0943 0.0519531 0)
(10.098 0.0529787 0)
(10.1019 0.0545735 0)
(10.1064 0.0565783 0)
(10.1121 0.05872 0)
(10.0004 0.00794547 0)
(10.006 0.0234509 0)
(10.0161 0.0328635 0)
(10.0261 0.0382994 0)
(10.0349 0.0423819 0)
(10.0432 0.045174 0)
(10.0512 0.0467242 0)
(10.0585 0.0475391 0)
(10.065 0.048001 0)
(10.0709 0.0482768 0)
(10.0764 0.0484763 0)
(10.0814 0.0487126 0)
(10.0861 0.0490853 0)
(10.0905 0.0496924 0)
(10.095 0.050593 0)
(10.0996 0.0518279 0)
(10.1048 0.0532385 0)
(10.1108 0.0544845 0)
(10.0004 0.00699479 0)
(10.005 0.0205098 0)
(10.0136 0.0296015 0)
(10.0227 0.0350891 0)
(10.031 0.039038 0)
(10.0388 0.0418209 0)
(10.0464 0.0435069 0)
(10.0534 0.0444785 0)
(10.0598 0.0450751 0)
(10.0657 0.0454677 0)
(10.0712 0.0457645 0)
(10.0764 0.0460661 0)
(10.0813 0.046457 0)
(10.0861 0.0470031 0)
(10.0909 0.0477305 0)
(10.0959 0.048618 0)
(10.1013 0.0495128 0)
(10.1073 0.0501172 0)
(10.0004 0.00616889 0)
(10.0043 0.0179548 0)
(10.0116 0.0264426 0)
(10.0197 0.0318377 0)
(10.0274 0.0356709 0)
(10.0348 0.0384298 0)
(10.042 0.0402081 0)
(10.0487 0.0412961 0)
(10.055 0.0419918 0)
(10.0609 0.0424668 0)
(10.0664 0.0428259 0)
(10.0716 0.0431564 0)
(10.0766 0.0435262 0)
(10.0816 0.0439778 0)
(10.0865 0.0445133 0)
(10.0917 0.0450845 0)
(10.097 0.0455564 0)
(10.1028 0.0457017 0)
(10.0003 0.00541369 0)
(10.0036 0.0156545 0)
(10.0098 0.0234208 0)
(10.0172 0.028627 0)
(10.0243 0.0323277 0)
(10.0313 0.0350199 0)
(10.038 0.0368326 0)
(10.0445 0.0379932 0)
(10.0506 0.0387559 0)
(10.0564 0.0392839 0)
(10.0618 0.0396759 0)
(10.0671 0.0400062 0)
(10.0721 0.0403284 0)
(10.0771 0.0406681 0)
(10.0821 0.0410141 0)
(10.0872 0.0413113 0)
(10.0925 0.0414508 0)
(10.098 0.0412722 0)
(10.0003 0.00475259 0)
(10.0031 0.0137228 0)
(10.0085 0.0207897 0)
(10.0151 0.0257379 0)
(10.0218 0.0292798 0)
(10.0283 0.0318735 0)
(10.0348 0.0336731 0)
(10.041 0.0348642 0)
(10.0469 0.0356607 0)
(10.0525 0.0362128 0)
(10.0579 0.0366118 0)
(10.0632 0.0369212 0)
(10.0682 0.0371839 0)
(10.0732 0.0374154 0)
(10.0782 0.0375997 0)
(10.0832 0.0376862 0)
(10.0883 0.0375906 0)
(10.0935 0.0372055 0)
(10.0003 0.00414221 0)
(10.0027 0.0119587 0)
(10.0074 0.0183011 0)
(10.0134 0.0229139 0)
(10.0195 0.0262605 0)
(10.0257 0.0287278 0)
(10.0318 0.0304787 0)
(10.0378 0.0316684 0)
(10.0436 0.0324741 0)
(10.0491 0.0330296 0)
(10.0544 0.0334178 0)
(10.0595 0.0336929 0)
(10.0645 0.0338888 0)
(10.0695 0.0340158 0)
(10.0744 0.0340581 0)
(10.0793 0.0339739 0)
(10.0842 0.0337011 0)
(10.0891 0.0331709 0)
(10.0002 0.00351179 0)
(10.0024 0.0101247 0)
(10.0064 0.0156307 0)
(10.0117 0.0197827 0)
(10.0173 0.0228495 0)
(10.0231 0.0251283 0)
(10.0289 0.0267767 0)
(10.0346 0.0279228 0)
(10.0401 0.0287058 0)
(10.0455 0.0292387 0)
(10.0507 0.0295945 0)
(10.0557 0.0298179 0)
(10.0607 0.0299343 0)
(10.0655 0.0299515 0)
(10.0703 0.0298573 0)
(10.075 0.0296225 0)
(10.0797 0.0292065 0)
(10.0843 0.0285695 0)
(10.0002 0.00285671 0)
(10.002 0.00821759 0)
(10.0055 0.0127852 0)
(10.0101 0.0163441 0)
(10.0153 0.0190264 0)
(10.0206 0.0210373 0)
(10.026 0.0225129 0)
(10.0314 0.0235569 0)
(10.0367 0.0242718 0)
(10.0419 0.0247461 0)
(10.0469 0.0250408 0)
(10.0518 0.0251919 0)
(10.0566 0.0252185 0)
(10.0614 0.0251263 0)
(10.066 0.0249095 0)
(10.0705 0.024552 0)
(10.0749 0.0240322 0)
(10.0792 0.0233316 0)
(10.0002 0.0021754 0)
(10.0017 0.00623809 0)
(10.0047 0.00977032 0)
(10.0087 0.0125995 0)
(10.0134 0.0147739 0)
(10.0183 0.0164189 0)
(10.0233 0.0176358 0)
(10.0284 0.0185029 0)
(10.0335 0.019091 0)
(10.0384 0.0194624 0)
(10.0433 0.0196628 0)
(10.048 0.0197209 0)
(10.0527 0.019651 0)
(10.0572 0.0194584 0)
(10.0616 0.0191419 0)
(10.0659 0.0186965 0)
(10.0701 0.0181153 0)
(10.0741 0.0173921 0)
(10.0002 0.00146383 0)
(10.0015 0.00417052 0)
(10.0041 0.0065672 0)
(10.0077 0.00852724 0)
(10.0118 0.0100573 0)
(10.0163 0.0112211 0)
(10.021 0.0120803 0)
(10.0258 0.0126846 0)
(10.0306 0.0130773 0)
(10.0354 0.0132954 0)
(10.04 0.0133679 0)
(10.0446 0.0133145 0)
(10.049 0.0131458 0)
(10.0534 0.0128664 0)
(10.0575 0.0124781 0)
(10.0616 0.011982 0)
(10.0655 0.0113798 0)
(10.0692 0.0106714 0)
(10.0001 0.000704635 0)
(10.0013 0.00196172 0)
(10.0036 0.00310144 0)
(10.0069 0.00404433 0)
(10.0108 0.00478179 0)
(10.015 0.00533497 0)
(10.0194 0.00572612 0)
(10.0239 0.0059746 0)
(10.0285 0.00609786 0)
(10.033 0.00611014 0)
(10.0375 0.00602253 0)
(10.0418 0.005843 0)
(10.0461 0.00557664 0)
(10.0502 0.00522604 0)
(10.0541 0.00479324 0)
(10.0579 0.00428084 0)
(10.0616 0.00369345 0)
(10.0651 0.00303169 0)
(10.0001 -0.000146443 0)
(10.0013 -0.000510795 0)
(10.0035 -0.00080166 0)
(10.0066 -0.00104451 0)
(10.0103 -0.00124818 0)
(10.0144 -0.00142909 0)
(10.0187 -0.00160565 0)
(10.0231 -0.00179218 0)
(10.0275 -0.00199736 0)
(10.0319 -0.00222992 0)
(10.0362 -0.0024972 0)
(10.0404 -0.00280548 0)
(10.0444 -0.00315832 0)
(10.0483 -0.00355849 0)
(10.0521 -0.004007 0)
(10.0557 -0.00450384 0)
(10.0592 -0.005046 0)
(10.0624 -0.00563578 0)
(10.0001 -0.0009632 0)
(10.0013 -0.00288272 0)
(10.0037 -0.00455486 0)
(10.007 -0.00592967 0)
(10.0109 -0.0070135 0)
(10.0151 -0.00786761 0)
(10.0195 -0.00855491 0)
(10.024 -0.00911856 0)
(10.0284 -0.00959531 0)
(10.0328 -0.0100179 0)
(10.037 -0.0104137 0)
(10.0412 -0.0108016 0)
(10.0451 -0.0111948 0)
(10.049 -0.0116015 0)
(10.0526 -0.0120282 0)
(10.0561 -0.0124783 0)
(10.0594 -0.0129529 0)
(10.0626 -0.0134565 0)
(10.0002 -0.00166771 0)
(10.0015 -0.00495263 0)
(10.0041 -0.00783141 0)
(10.0078 -0.0101279 0)
(10.0121 -0.0118719 0)
(10.0166 -0.0132147 0)
(10.0212 -0.0142637 0)
(10.0258 -0.0150773 0)
(10.0304 -0.0157139 0)
(10.0348 -0.0162325 0)
(10.0391 -0.0166806 0)
(10.0432 -0.0170883 0)
(10.0472 -0.0174763 0)
(10.051 -0.0178574 0)
(10.0546 -0.018242 0)
(10.058 -0.0186364 0)
(10.0613 -0.0190439 0)
(10.0643 -0.01947 0)
(10.0002 -0.0023364 0)
(10.0017 -0.00699602 0)
(10.0047 -0.0111009 0)
(10.009 -0.0142272 0)
(10.0138 -0.0164815 0)
(10.0187 -0.0181759 0)
(10.0235 -0.0194716 0)
(10.0284 -0.0204418 0)
(10.0332 -0.0211675 0)
(10.0377 -0.0217303 0)
(10.0421 -0.0221881 0)
(10.0463 -0.0225803 0)
(10.0502 -0.0229332 0)
(10.054 -0.0232667 0)
(10.0576 -0.0235931 0)
(10.061 -0.0239223 0)
(10.0642 -0.0242573 0)
(10.0672 -0.0246044 0)
(10.0002 -0.00296203 0)
(10.0018 -0.00906326 0)
(10.0054 -0.0143893 0)
(10.0106 -0.0182449 0)
(10.016 -0.0209569 0)
(10.0213 -0.0229489 0)
(10.0265 -0.0243775 0)
(10.0316 -0.0253701 0)
(10.0366 -0.0260817 0)
(10.0413 -0.0266221 0)
(10.0457 -0.0270486 0)
(10.0499 -0.027398 0)
(10.0539 -0.0276995 0)
(10.0577 -0.0279756 0)
(10.0613 -0.0282413 0)
(10.0647 -0.0285062 0)
(10.0679 -0.0287739 0)
(10.0709 -0.0290496 0)
(10.0001 -0.00351353 0)
(10.0018 -0.0115242 0)
(10.0063 -0.0178383 0)
(10.0123 -0.0219101 0)
(10.0184 -0.0249525 0)
(10.0242 -0.0273399 0)
(10.0298 -0.0289587 0)
(10.0353 -0.0299526 0)
(10.0404 -0.0305931 0)
(10.0452 -0.0310467 0)
(10.0498 -0.0313824 0)
(10.0541 -0.0316398 0)
(10.0581 -0.0318527 0)
(10.0619 -0.0320449 0)
(10.0655 -0.0322316 0)
(10.0688 -0.0324199 0)
(10.072 -0.0326132 0)
(10.0749 -0.0328124 0)
(9.99992 -0.00336695 0)
(10.0016 -0.014947 0)
(10.0073 -0.0226885 0)
(10.0143 -0.0261812 0)
(10.0207 -0.0287481 0)
(10.0269 -0.031096 0)
(10.0332 -0.0328044 0)
(10.0392 -0.0338822 0)
(10.0447 -0.0345735 0)
(10.0497 -0.035033 0)
(10.0544 -0.0353324 0)
(10.0588 -0.0355257 0)
(10.0628 -0.0356589 0)
(10.0665 -0.0357635 0)
(10.07 -0.0358582 0)
(10.0731 -0.0359527 0)
(10.0761 -0.0360509 0)
(10.0788 -0.0361558 0)
(9.9986 -0.000388058 0)
(9.99909 -0.0157406 0)
(10.0076 -0.0274012 0)
(10.0167 -0.032449 0)
(10.0238 -0.0348105 0)
(10.0307 -0.0361513 0)
(10.0378 -0.036892 0)
(10.0443 -0.0373516 0)
(10.0501 -0.0376956 0)
(10.0553 -0.0379407 0)
(10.0599 -0.038087 0)
(10.064 -0.0381594 0)
(10.0676 -0.0381892 0)
(10.0708 -0.0381986 0)
(10.0736 -0.0382025 0)
(10.076 -0.0382093 0)
(10.0782 -0.0382211 0)
(10.08 -0.03824 0)
(9.99488 0.00134235 0)
(9.99288 -0.00808166 0)
(10.0061 -0.0203321 0)
(10.0202 -0.0322459 0)
(10.0307 -0.0404382 0)
(10.0393 -0.0441001 0)
(10.0469 -0.0450028 0)
(10.0531 -0.0448513 0)
(10.058 -0.0443805 0)
(10.0619 -0.0437839 0)
(10.0649 -0.0431403 0)
(10.0671 -0.0425066 0)
(10.0686 -0.0419183 0)
(10.0695 -0.0413846 0)
(10.0698 -0.040915 0)
(10.0697 -0.0405059 0)
(10.0692 -0.0401544 0)
(10.0685 -0.039835 0)
(9.99473 -0.0305572 0)
(9.99926 -0.0228639 0)
(10.0147 -0.00262319 0)
(10.0304 -0.00188735 0)
(10.0435 -0.0116285 0)
(10.0534 -0.0208865 0)
(10.0595 -0.027238 0)
(10.062 -0.0314605 0)
(10.0617 -0.0342316 0)
(10.0593 -0.0359264 0)
(10.0553 -0.0368584 0)
(10.05 -0.0372945 0)
(10.0438 -0.0374245 0)
(10.0368 -0.0373679 0)
(10.0293 -0.0372159 0)
(10.0213 -0.0370242 0)
(10.0132 -0.0368577 0)
(10.005 -0.0366844 0)
(10.0273 -0.182756 0)
(10.0763 -0.28831 0)
(10.0872 -0.247747 0)
(10.0777 -0.186508 0)
(10.0664 -0.140278 0)
(10.0538 -0.108198 0)
(10.0366 -0.0858547 0)
(10.0146 -0.0703921 0)
(9.98951 -0.0596204 0)
(9.96251 -0.0518442 0)
(9.93458 -0.0460219 0)
(9.90629 -0.0415282 0)
(9.87815 -0.0379775 0)
(9.85048 -0.0351077 0)
(9.82352 -0.032748 0)
(9.79736 -0.0308359 0)
(9.77229 -0.0293275 0)
(9.74828 -0.028519 0)
(9.93575 0.689321 0)
(9.86861 0.609607 0)
(9.76456 0.380631 0)
(9.6267 0.217452 0)
(9.486 0.11928 0)
(9.35737 0.0632038 0)
(9.24291 0.0315935 0)
(9.14143 0.0136345 0)
(9.05181 0.00328248 0)
(8.97291 -0.00277723 0)
(8.90308 -0.00633273 0)
(8.84096 -0.00845478 0)
(8.78531 -0.00970945 0)
(8.73525 -0.0104615 0)
(8.68985 -0.0109684 0)
(8.64851 -0.0112374 0)
(8.61032 -0.011452 0)
(8.57495 -0.0121153 0)
(0.0119489 -0.0179117 -5.93192e-19)
(0.0325262 -0.0264007 2.99108e-19)
(0.0491237 -0.0245086 0)
(0.0645325 -0.0182376 0)
(0.0746843 -0.0101733 0)
(0.078684 -0.0018479 -1.22549e-19)
(0.0771299 0.00570997 0)
(0.0707584 0.0119157 0)
(0.0602385 0.0166398 0)
(0.0463343 0.0198654 0)
(0.0300982 0.0218272 1.06671e-19)
(0.0117202 0.0236334 0)
(-0.00832446 0.0261889 0)
(-0.0296091 0.0312673 0)
(-0.0497356 0.0400893 0)
(-0.0734325 0.0360624 2.47895e-19)
(-0.105522 0.0140525 0)
(-0.12815 0.0125857 0)
(-0.16172 0.0180513 0)
(-0.201263 0.0272208 0)
(-0.244074 0.0372007 0)
(-0.291181 0.0458317 0)
(-0.34241 0.0532125 0)
(-0.397307 0.057542 1.21174e-19)
(-0.455063 0.0588825 -1.11291e-19)
(-0.513868 0.0602855 1.02727e-19)
(-0.574268 0.0615924 9.52544e-20)
(-0.635924 0.0625736 0)
(-0.698472 0.0631255 0)
(-0.761463 0.0632259 -7.80049e-20)
(-0.82446 0.0628779 -7.36027e-20)
(-0.887042 0.0621214 0)
(-0.948843 0.0609919 0)
(-1.00955 0.0595505 -6.33071e-20)
(-1.0689 0.0578492 0)
(-1.12669 0.0559569 0)
(-1.18277 0.0539242 5.6121e-20)
(-1.23706 0.0518122 0)
(-1.2895 0.0496585 5.24924e-20)
(-1.34008 0.04751 1.01873e-19)
(-1.38882 0.0453886 0)
(-1.43576 0.0433263 0)
(-1.48097 0.0413323 0)
(-1.52451 0.0394268 0)
(-1.56647 0.0376083 0)
(-1.60694 0.0358871 8.79395e-20)
(-1.64598 0.0342555 8.61554e-20)
(-1.6837 0.0327189 8.4476e-20)
(-1.72016 0.0312667 0)
(-1.75545 0.0299013 -8.13707e-20)
(-1.78964 0.0286096 0)
(-1.82281 0.0273935 7.85342e-20)
(-1.85501 0.026242 7.71943e-20)
(-1.88632 0.0251567 0)
(-1.91678 0.0241259 0)
(-1.94646 0.0231532 0)
(-1.9754 0.0222304 7.22091e-20)
(-2.00365 0.0213616 0)
(-2.03126 0.0205374 0)
(-2.05827 0.0197635 0)
(-2.08473 0.0190341 0)
(-2.11067 0.0183554 0)
(-2.13614 0.0177225 0)
(-2.16119 0.0171409 0)
(-2.18585 0.0166072 0)
(-2.21018 0.0161271 -6.20695e-20)
(-2.23421 0.0156985 0)
(-2.25799 0.0153261 0)
(-2.28157 0.0150086 5.88018e-20)
(-2.30499 0.014749 5.7717e-20)
(-2.32832 0.0145476 0)
(-2.35161 0.0144053 -5.55553e-20)
(-2.37489 0.0143225 5.4479e-20)
(-2.39825 0.0142978 0)
(-2.42173 0.0143333 -5.23364e-20)
(-2.44539 0.0144285 0)
(-2.46929 0.0145901 0)
(-2.49347 0.0148181 4.916e-20)
(-2.51798 0.0151144 0)
(-2.54288 0.0154725 -4.70803e-20)
(-2.56819 0.0158937 0)
(-2.59395 0.0163575 4.50466e-20)
(-2.62018 0.0168352 4.40531e-20)
(-2.64688 0.0172513 4.30804e-20)
(-2.67393 0.0172033 8.42392e-20)
(-2.70127 0.0182438 -8.23085e-20)
(-2.72923 0.0198445 0)
(-2.75775 0.0201425 0)
(-2.7865 0.0204201 0)
(-2.81542 0.02087 -7.55066e-20)
(-2.84465 0.0214231 -7.396e-20)
(-2.87405 0.0212583 7.25114e-20)
(-2.90343 0.0214651 0)
(-2.93278 0.0213569 -6.9726e-20)
(-2.96179 0.0212746 -6.83824e-20)
(-2.99052 0.0214314 -6.71989e-20)
(-3.01866 0.0207101 0)
(-3.04599 0.0202975 0)
(-3.07228 0.019357 0)
(-3.09722 0.0183064 -6.30625e-20)
(-3.12051 0.0173331 0)
(-3.14189 0.0160469 0)
(-3.16089 0.0144707 6.08133e-20)
(-3.1769 0.0120529 0)
(-3.18921 0.0100818 0)
(-3.19796 0.0100737 5.91119e-20)
(-3.20314 0.00844407 0)
(-3.20432 0.00551562 0)
(-3.20165 0.00510335 -5.76288e-20)
(-3.19542 0.00348845 -5.71787e-20)
(-3.18485 0.00110422 0)
(-3.16986 -0.00106059 5.59483e-20)
(-3.14997 -0.00339943 0)
(-3.12532 -0.00529435 -5.42825e-20)
(-3.09569 -0.00715771 0)
(-3.06103 -0.00962654 -5.22396e-20)
(-3.02067 -0.0127964 -5.08049e-20)
(-2.97484 -0.0155649 0)
(-2.92316 -0.0189295 0)
(-2.86578 -0.0219083 0)
(-2.80288 -0.0249534 0)
(-2.73422 -0.0285275 0)
(-2.65987 -0.0320695 0)
(-2.57984 -0.0357218 0)
(-2.49418 -0.0394106 -2.62928e-20)
(-2.40307 -0.0431364 2.06684e-20)
(-2.30671 -0.0468425 0)
(-2.20537 -0.050517 0)
(-2.09935 -0.0541011 0)
(-1.98899 -0.0575813 0)
(-1.87465 -0.060912 -4.19116e-20)
(-1.75675 -0.0640772 0)
(-1.63571 -0.0670463 9.11721e-20)
(-1.51196 -0.0698074 -1.20132e-19)
(-1.38596 -0.0723481 0)
(-1.25815 -0.074683 0)
(-1.12897 -0.076825 0)
(-0.998872 -0.0787834 2.73255e-19)
(-0.868265 -0.080582 3.23552e-19)
(-0.737543 -0.0822461 0)
(-0.607066 -0.0837911 4.44497e-19)
(-0.477242 -0.0851746 5.18055e-19)
(-0.34819 -0.0864004 -6.0287e-19)
(-0.22058 -0.0876735 0)
(-0.093101 -0.0878867 0)
(0.0369563 -0.0856069 -7.64775e-19)
(0.166165 -0.0817355 0)
(0.292257 -0.0775317 0)
(0.414902 -0.0733808 0)
(0.533655 -0.0693654 0)
(0.648322 -0.065517 6.38847e-19)
(0.758786 -0.0618225 6.23332e-19)
(0.865022 -0.058292 0)
(0.967036 -0.0549586 5.9722e-19)
(1.06488 -0.0517929 0)
(1.15859 -0.0487521 0)
(1.24831 -0.0458772 5.66667e-19)
(1.33415 -0.0431806 0)
(1.41621 -0.0406323 5.50042e-19)
(1.4946 -0.0382204 0)
(1.56943 -0.0359371 0)
(1.64086 -0.0337801 5.29364e-19)
(1.70901 -0.0317495 0)
(1.77402 -0.0298349 5.1771e-19)
(1.83599 -0.0280215 0)
(1.89503 -0.0263076 0)
(1.95126 -0.0246901 0)
(2.00475 -0.0231518 -4.98436e-19)
(2.05561 -0.021688 0)
(2.10388 -0.0202905 4.90549e-19)
(2.14957 -0.018934 0)
(2.19267 -0.0175922 0)
(2.23302 -0.016243 0)
(2.27034 -0.0148161 0)
(2.30416 -0.0132102 0)
(2.33307 -0.0112351 0)
(2.35639 -0.0081982 0)
(2.36348 -0.00238248 -9.61326e-19)
(2.35718 0.0109319 0)
(2.24446 0.0298688 0)
(0.0113181 -0.0666631 1.33726e-18)
(0.0282365 -0.0651481 -5.69748e-19)
(0.034749 -0.0493694 0)
(0.0386415 -0.0329821 1.66628e-19)
(0.0386784 -0.0167618 0)
(0.0349024 -0.00121904 6.37829e-20)
(0.0276883 0.0131091 -1.19663e-19)
(0.0170259 0.0258293 -1.15901e-19)
(0.00274045 0.036778 0)
(-0.0152313 0.0461111 -1.154e-19)
(-0.0370662 0.0540256 -5.7811e-20)
(-0.0627885 0.0603896 0)
(-0.0920667 0.0662247 0)
(-0.124524 0.0729784 0)
(-0.159524 0.0811006 0)
(-0.200965 0.0887038 -6.71991e-20)
(-0.248417 0.0939983 0)
(-0.299417 0.101728 1.2543e-19)
(-0.351579 0.111711 0)
(-0.404461 0.122761 0)
(-0.458261 0.13328 -9.94238e-20)
(-0.513487 0.141939 0)
(-0.570324 0.148719 8.6977e-20)
(-0.629175 0.15405 -4.1435e-20)
(-0.689518 0.157776 3.95292e-20)
(-0.750235 0.160165 -3.77711e-20)
(-0.810928 0.161485 -3.61435e-20)
(-0.871127 0.161725 0)
(-0.930449 0.160865 0)
(-0.988595 0.158964 3.19772e-20)
(-1.04533 0.156125 -3.05642e-20)
(-1.10049 0.152493 0)
(-1.15396 0.148214 0)
(-1.20567 0.143446 2.78523e-20)
(-1.2556 0.138329 0)
(-1.30373 0.133004 0)
(-1.35011 0.127584 -2.55699e-20)
(-1.39478 0.122174 0)
(-1.43779 0.116849 2.41333e-20)
(-1.47922 0.111674 -4.75635e-20)
(-1.51914 0.106689 0)
(-1.55764 0.101929 0)
(-1.5948 0.0974052 -8.90399e-20)
(-1.63069 0.0931329 -8.73793e-20)
(-1.66539 0.0891073 -8.58139e-20)
(-1.69898 0.0853294 4.2006e-20)
(-1.73152 0.0817854 -4.16166e-20)
(-1.76309 0.0784701 -1.2252e-19)
(-1.79374 0.0753659 8.02941e-20)
(-1.82353 0.0724652 3.96648e-20)
(-1.85251 0.0697488 0)
(-1.88075 0.0672086 -3.84758e-20)
(-1.90829 0.0648273 3.76689e-20)
(-1.93518 0.0625988 0)
(-1.96145 0.0605072 0)
(-1.98716 0.0585482 0)
(-2.01234 0.0567096 -3.57425e-20)
(-2.03703 0.0549905 0)
(-2.06127 0.0533801 6.92457e-20)
(-2.08509 0.0518781 0)
(-2.10853 0.0504767 6.72286e-20)
(-2.13162 0.0491777 0)
(-2.1544 0.047975 -6.52294e-20)
(-2.17692 0.0468709 0)
(-2.19919 0.0458611 6.32373e-20)
(-2.22127 0.0449481 -3.10692e-20)
(-2.24319 0.0441294 0)
(-2.26499 0.0434074 -6.02471e-20)
(-2.2867 0.0427803 -2.96685e-20)
(-2.30838 0.0422489 -2.9168e-20)
(-2.33005 0.041813 0)
(-2.35176 0.0414718 -2.80841e-20)
(-2.37355 0.0412244 -2.76738e-20)
(-2.39545 0.0410657 0)
(-2.41752 0.0409923 2.66871e-20)
(-2.43977 0.0409963 -5.2295e-20)
(-2.46225 0.0410763 0)
(-2.48496 0.041223 -2.52279e-20)
(-2.50794 0.0414297 0)
(-2.53119 0.0416796 7.26902e-20)
(-2.55472 0.041967 0)
(-2.57851 0.0422734 -6.98639e-20)
(-2.60256 0.0425867 -2.28795e-20)
(-2.62683 0.042875 2.2251e-20)
(-2.65142 0.0431233 4.35869e-20)
(-2.67621 0.0433143 -4.26863e-20)
(-2.70109 0.0435058 0)
(-2.726 0.0436609 0)
(-2.75089 0.0437289 0)
(-2.77567 0.0436807 1.19665e-19)
(-2.80018 0.0434752 3.93992e-20)
(-2.82446 0.0431129 -3.87691e-20)
(-2.84831 0.0425312 0)
(-2.87156 0.0417249 -3.68945e-20)
(-2.89406 0.0406549 3.70168e-20)
(-2.91556 0.039322 3.65304e-20)
(-2.93593 0.0376931 0)
(-2.95495 0.035739 0)
(-2.97243 0.0334486 0)
(-2.98818 0.0307853 3.4812e-20)
(-3.00199 0.027733 0)
(-3.01371 0.0242836 -6.77314e-20)
(-3.02321 0.0204221 -1.01063e-19)
(-3.03052 0.0161882 6.66941e-20)
(-3.03573 0.0116584 0)
(-3.03849 0.00695652 3.26057e-20)
(-3.03852 0.00224775 0)
(-3.03552 -0.00263916 6.49612e-20)
(-3.02884 -0.00768588 -3.20777e-20)
(-3.01786 -0.0128052 -3.19322e-20)
(-3.00283 -0.0181874 0)
(-2.98334 -0.0238505 -9.52494e-20)
(-2.95922 -0.0296627 6.26268e-20)
(-2.93021 -0.0357238 3.10771e-20)
(-2.896 -0.0419323 0)
(-2.85624 -0.0481465 3.01393e-20)
(-2.81119 -0.0544228 8.81319e-20)
(-2.76053 -0.0608601 0)
(-2.70411 -0.0671761 5.5383e-20)
(-2.64198 -0.0734997 5.31983e-20)
(-2.57393 -0.0798134 5.07064e-20)
(-2.50002 -0.0860383 0)
(-2.42034 -0.0921478 0)
(-2.33484 -0.0980767 0)
(-2.24359 -0.103722 -1.85062e-20)
(-2.14677 -0.10909 -1.49032e-20)
(-2.04459 -0.11412 0)
(-1.93732 -0.118803 -1.91272e-20)
(-1.82528 -0.123084 -1.22139e-20)
(-1.70883 -0.126949 0)
(-1.58835 -0.130353 5.8596e-21)
(-1.46429 -0.133288 2.52581e-20)
(-1.33708 -0.135729 -2.48786e-20)
(-1.20721 -0.137681 -2.99376e-20)
(-1.07516 -0.139147 0)
(-0.941396 -0.140152 0)
(-0.806401 -0.140718 0)
(-0.670641 -0.140889 -8.43124e-20)
(-0.534564 -0.140704 9.1291e-20)
(-0.398568 -0.140207 2.18159e-19)
(-0.263023 -0.139459 -1.27704e-19)
(-0.127994 -0.138579 1.34742e-19)
(0.00679968 -0.137711 1.52738e-19)
(0.140494 -0.137015 0)
(0.271306 -0.135649 0)
(0.398205 -0.132567 -1.68502e-19)
(0.521194 -0.128119 0)
(0.640828 -0.123074 0)
(0.757217 -0.117795 3.8244e-19)
(0.870198 -0.112456 0)
(0.979628 -0.107145 1.99786e-19)
(1.08541 -0.101922 -2.09601e-19)
(1.18748 -0.0968157 0)
(1.28584 -0.0918664 2.1388e-19)
(1.38049 -0.0870886 0)
(1.47145 -0.0824858 0)
(1.55882 -0.0780751 -2.28416e-19)
(1.64263 -0.0738701 4.59024e-19)
(1.72294 -0.0698469 -2.33756e-19)
(1.79988 -0.0660079 0)
(1.87355 -0.0623536 0)
(1.94407 -0.0588914 2.37574e-19)
(2.01152 -0.0556106 0)
(2.07603 -0.0524944 2.41267e-19)
(2.1377 -0.0495291 0)
(2.19663 -0.0467125 0)
(2.2529 -0.0440329 0)
(2.30661 -0.041474 2.48724e-19)
(2.35782 -0.0390214 0)
(2.40659 -0.036651 -2.50747e-19)
(2.45292 -0.0343216 0)
(2.49678 -0.0319788 0)
(2.53803 -0.0295407 5.05831e-19)
(2.57643 -0.0268796 -5.0791e-19)
(2.61153 -0.023741 0)
(2.64239 -0.0197175 0)
(2.66807 -0.0135635 0)
(2.68513 -0.00284281 1.5741e-18)
(2.70216 0.0189356 0)
(2.69062 0.0585096 -1.0887e-18)
(0.0031208 -0.0954113 -1.02202e-21)
(0.0103038 -0.0773463 5.79352e-19)
(0.00781687 -0.0507538 0)
(0.00321498 -0.0263747 -2.49314e-19)
(-0.0044417 -0.00356707 0)
(-0.014997 0.017948 0)
(-0.0282817 0.0381786 7.63373e-23)
(-0.0443924 0.057118 7.96643e-20)
(-0.0635773 0.0747719 7.6945e-20)
(-0.0860981 0.0912009 7.55134e-20)
(-0.112157 0.106337 0)
(-0.141883 0.120222 0)
(-0.175328 0.133489 -7.21881e-20)
(-0.212171 0.146877 -1.42483e-19)
(-0.252054 0.160535 1.40731e-19)
(-0.295291 0.173655 0)
(-0.341871 0.185752 1.34272e-19)
(-0.391188 0.198102 -6.4558e-20)
(-0.44205 0.210538 0)
(-0.493486 0.22238 1.1676e-19)
(-0.544934 0.232896 5.56107e-20)
(-0.596585 0.241685 -1.05915e-19)
(-0.648804 0.24864 -5.08169e-20)
(-0.701371 0.253617 0)
(-0.753888 0.256638 9.36618e-20)
(-0.806126 0.257775 9.01464e-20)
(-0.85784 0.257174 0)
(-0.908754 0.25496 8.36845e-20)
(-0.958669 0.251283 0)
(-1.00747 0.246324 7.80136e-20)
(-1.05506 0.240285 3.78388e-20)
(-1.10141 0.233384 0)
(-1.14649 0.225833 0)
(-1.19029 0.217834 0)
(-1.23283 0.209564 0)
(-1.2741 0.201184 0)
(-1.31415 0.192827 0)
(-1.35299 0.184605 6.22866e-20)
(-1.39066 0.176601 -9.14534e-20)
(-1.4272 0.168882 0)
(-1.46263 0.161489 0)
(-1.497 0.154452 0)
(-1.53035 0.147781 1.83419e-22)
(-1.56272 0.141483 5.53833e-20)
(-1.59415 0.135552 1.0868e-19)
(-1.62468 0.129978 -1.06867e-19)
(-1.65435 0.124746 -5.24869e-20)
(-1.68321 0.119842 5.182e-20)
(-1.71129 0.115246 -1.52762e-22)
(-1.73864 0.11094 5.01045e-20)
(-1.76528 0.106905 0)
(-1.79127 0.103124 4.8647e-20)
(-1.81663 0.0995785 -1.29395e-22)
(-1.84141 0.0962548 0)
(-1.86563 0.0931375 0)
(-1.88933 0.0902154 -4.59345e-20)
(-1.91254 0.0874769 0)
(-1.9353 0.0849144 0)
(-1.95762 0.0825192 4.39115e-20)
(-1.97956 0.0802857 8.67506e-20)
(-2.00113 0.0782083 -4.28326e-20)
(-2.02236 0.076284 0)
(-2.04329 0.0745091 4.15749e-20)
(-2.06395 0.0728818 0)
(-2.08437 0.0714001 4.0184e-20)
(-2.10459 0.0700632 3.96975e-20)
(-2.12462 0.0688702 -7.8016e-20)
(-2.14452 0.0678205 -3.83217e-20)
(-2.16431 0.0669133 0)
(-2.18403 0.0661468 7.4273e-20)
(-2.20371 0.0655197 0)
(-2.22339 0.0650284 1.07731e-19)
(-2.24309 0.0646698 7.05327e-20)
(-2.26286 0.0644364 6.92903e-20)
(-2.28272 0.064322 -6.80519e-20)
(-2.30271 0.0643161 1.00305e-19)
(-2.32285 0.0644107 0)
(-2.34315 0.0645908 0)
(-2.36364 0.0648412 -6.31632e-20)
(-2.38434 0.0651392 -9.30425e-20)
(-2.40523 0.0654655 0)
(-2.42633 0.0657909 2.99107e-20)
(-2.44762 0.0660884 0)
(-2.46911 0.0663236 -8.61031e-20)
(-2.49079 0.0664785 -2.60184e-22)
(-2.51261 0.0666022 2.74295e-22)
(-2.53447 0.0666921 5.41389e-20)
(-2.55631 0.0665947 0)
(-2.5781 0.0662897 -5.21902e-20)
(-2.59975 0.0657834 -3.48047e-22)
(-2.62119 0.0650362 0)
(-2.64234 0.063993 0)
(-2.66311 0.0626326 0)
(-2.68333 0.0609291 4.85161e-20)
(-2.7029 0.0588609 0)
(-2.7216 0.0564157 0)
(-2.73934 0.0535161 0)
(-2.75593 0.0501688 0)
(-2.77122 0.0463445 0)
(-2.78504 0.0420304 4.47455e-20)
(-2.79723 0.037242 0)
(-2.80761 0.0319587 4.43851e-20)
(-2.81602 0.02618 4.40572e-20)
(-2.82231 0.0199402 -4.37642e-20)
(-2.82625 0.0133434 0)
(-2.82744 0.00649415 -4.32029e-20)
(-2.8255 -0.000797177 0)
(-2.82034 -0.00860198 -4.26422e-20)
(-2.81144 -0.016678 4.24077e-20)
(-2.7986 -0.0250591 1.25804e-19)
(-2.78167 -0.0338763 0)
(-2.76033 -0.043056 1.23547e-19)
(-2.7344 -0.0525295 4.04766e-20)
(-2.7036 -0.06227 0)
(-2.66765 -0.0722312 7.90153e-20)
(-2.6263 -0.0823261 7.76142e-20)
(-2.57969 -0.0925246 -1.13665e-19)
(-2.52745 -0.102837 0)
(-2.46955 -0.113115 -3.5492e-20)
(-2.40589 -0.123306 -3.39995e-20)
(-2.33634 -0.133406 -9.74586e-20)
(-2.261 -0.143336 0)
(-2.17988 -0.153011 0)
(-2.09297 -0.162338 0)
(-2.00039 -0.171206 -2.3932e-20)
(-1.90229 -0.179556 0)
(-1.79891 -0.187316 0)
(-1.69051 -0.194431 1.17875e-20)
(-1.57744 -0.200838 7.48385e-21)
(-1.46007 -0.206489 0)
(-1.33879 -0.211335 0)
(-1.21407 -0.215348 -1.51848e-20)
(-1.08637 -0.218504 0)
(-0.956185 -0.220803 3.87384e-20)
(-0.823999 -0.222257 4.79336e-20)
(-0.69031 -0.222899 0)
(-0.555605 -0.222775 0)
(-0.420356 -0.221941 -8.89398e-20)
(-0.285002 -0.22047 -4.17479e-21)
(-0.149915 -0.21847 -4.30195e-21)
(-0.0152709 -0.21608 0)
(0.118345 -0.213269 -2.90134e-19)
(0.250105 -0.209839 0)
(0.379457 -0.205783 0)
(0.505848 -0.201177 0)
(0.628855 -0.195909 1.88415e-19)
(0.748429 -0.189888 0)
(0.864675 -0.18329 -4.0694e-19)
(0.977576 -0.176345 -2.1584e-19)
(1.08703 -0.169219 0)
(1.19295 -0.162025 -2.32189e-19)
(1.29527 -0.154846 0)
(1.39396 -0.147744 0)
(1.48901 -0.140776 -7.55582e-19)
(1.58044 -0.133979 5.14902e-19)
(1.6683 -0.12737 0)
(1.75265 -0.120972 5.38364e-19)
(1.83354 -0.11482 -2.76549e-19)
(1.91106 -0.108912 0)
(1.98536 -0.103249 0)
(2.05651 -0.0978309 0)
(2.12464 -0.0926646 -8.78378e-19)
(2.18983 -0.0877428 0)
(2.2522 -0.0830476 -3.00945e-19)
(2.31186 -0.0785664 0)
(2.3689 -0.0742925 0)
(2.42341 -0.0702093 0)
(2.47547 -0.0662982 0)
(2.52517 -0.0625372 0)
(2.57254 -0.0588846 0)
(2.6176 -0.0552825 -6.37057e-19)
(2.6603 -0.051649 0)
(2.70056 -0.0478576 -3.23781e-19)
(2.73815 -0.0437139 9.76253e-19)
(2.77273 -0.0388761 0)
(2.80361 -0.0327458 0)
(2.83021 -0.0240384 -6.66895e-19)
(2.85018 -0.0105208 -6.77795e-19)
(2.86835 0.0133863 6.81063e-19)
(2.87372 0.0575982 7.04167e-19)
(-0.00671983 -0.0983428 -1.77575e-18)
(-0.00873204 -0.0675004 -7.04412e-19)
(-0.0185287 -0.0351826 -2.7141e-19)
(-0.0302498 -0.00563916 -9.91507e-20)
(-0.0441444 0.0220239 0)
(-0.0601401 0.0483232 1.42239e-19)
(-0.0782599 0.0734862 -6.48504e-20)
(-0.0986322 0.0976075 0)
(-0.121436 0.120719 -5.8299e-20)
(-0.146826 0.142804 0)
(-0.174913 0.163797 1.09545e-19)
(-0.205825 0.183704 0)
(-0.239585 0.202731 5.23499e-20)
(-0.276005 0.22111 1.02233e-19)
(-0.314796 0.238847 -9.96509e-20)
(-0.355745 0.255641 0)
(-0.398671 0.271237 -9.38071e-20)
(-0.443245 0.28579 0)
(-0.48892 0.299228 0)
(-0.535149 0.31129 -8.39171e-20)
(-0.581533 0.321648 0)
(-0.627856 0.330047 1.1897e-22)
(-0.673998 0.336301 0)
(-0.71982 0.340255 0)
(-0.765175 0.341874 -4.15531e-23)
(-0.809965 0.341269 -6.69019e-20)
(-0.854098 0.338627 -6.45439e-20)
(-0.897499 0.334163 -6.24116e-20)
(-0.940105 0.328127 0)
(-0.981869 0.320769 -1.16975e-19)
(-1.02276 0.312336 0)
(-1.06277 0.30307 -5.50688e-20)
(-1.10188 0.293194 0)
(-1.14008 0.282917 0)
(-1.17738 0.272422 5.07773e-20)
(-1.21376 0.261871 0)
(-1.24925 0.2514 -4.83787e-20)
(-1.28383 0.241117 -6.94441e-23)
(-1.31752 0.23111 9.26502e-20)
(-1.35033 0.221443 -9.06898e-20)
(-1.38227 0.212162 0)
(-1.41335 0.203296 0)
(-1.44358 0.194861 -4.27658e-20)
(-1.473 0.186863 0)
(-1.50162 0.179299 -4.1442e-20)
(-1.52946 0.172161 4.07643e-20)
(-1.55656 0.165433 4.01161e-20)
(-1.58293 0.159099 0)
(-1.60861 0.153142 -3.88951e-20)
(-1.63363 0.14754 -3.83164e-20)
(-1.658 0.142273 7.5407e-20)
(-1.68177 0.137323 -3.72099e-20)
(-1.70495 0.132669 -3.66776e-20)
(-1.72758 0.128295 0)
(-1.74969 0.124184 0)
(-1.7713 0.120323 3.51423e-20)
(-1.79244 0.116699 0)
(-1.81313 0.113301 0)
(-1.8334 0.110121 -6.73362e-20)
(-1.85329 0.107152 -6.63695e-20)
(-1.87281 0.104386 0)
(-1.89199 0.101821 0)
(-1.91086 0.0994515 0)
(-1.92945 0.0972759 0)
(-1.94778 0.095292 -6.1584e-20)
(-1.96589 0.0934982 6.0567e-20)
(-1.98381 0.0918933 5.96742e-20)
(-2.00156 0.090476 1.1737e-19)