/*--------------------------------*- C++ -*----------------------------------*\
  =========                 |
  \\      /  F ield         | OpenFOAM: The Open Source CFD Toolbox
   \\    /   O peration     | Website:  https://openfoam.org
    \\  /    A nd           | Version:  11
     \\/     M anipulation  |
\*---------------------------------------------------------------------------*/
FoamFile
{
    format      ascii;
    class       volScalarField;
    location    "287";
    object      epsilon;
}
// * * * * * * * * * * * * * * * * * * * * * * * * * * * * * * * * * * * * * //

dimensions      [0 2 -3 0 0 0 0];

internalField   nonuniform List<scalar> 
12225
(
285.516
270.697
257.922
243.802
232.472
223.072
216.825
212.693
212.742
213.942
217.25
220.853
228.103
232.711
241.296
246.677
254.056
264.188
52.4945
91.879
106.972
114.746
124.841
136.779
152.682
169.898
191.084
210.922
235.173
255.461
280.949
299.279
324.558
339.174
364.219
373.02
20.3233
34.8565
44.6743
50.47
55.3943
59.6081
64.6601
69.6443
76.3077
83.1834
91.4168
99.3125
108.137
116.915
125.48
135.213
142.455
153.534
15.3482
19.6977
24.1121
27.5692
30.4962
32.8703
35.1532
37.2943
39.4993
41.9177
44.3316
47.1988
49.6729
53.0294
55.3973
59.2113
61.3987
65.592
14.6508
15.8626
17.3668
19.0741
20.6378
22.0262
23.2452
24.4312
25.4429
26.5943
27.5218
28.7563
29.6293
30.9812
31.8079
33.2558
34.0664
35.628
14.7068
14.8769
15.2014
15.8668
16.5665
17.2869
17.9233
18.5841
19.1187
19.7336
20.1926
20.798
21.2073
21.8206
22.1959
22.8214
23.1744
23.8508
14.7421
14.6201
14.6248
14.737
14.9297
15.2191
15.4911
15.8088
16.0708
16.3824
16.6178
16.9197
17.1303
17.4261
17.6148
17.9103
18.0793
18.4028
14.7626
14.5866
14.4637
14.3812
14.3669
14.39
14.4381
14.5337
14.6185
14.7365
14.8307
14.9562
15.0475
15.1757
15.2605
15.3909
15.4688
15.618
14.7666
14.5908
14.4346
14.2963
14.1849
14.1044
14.0398
14.0066
13.9814
13.9785
13.9808
13.9916
14.004
14.0294
14.0469
14.0791
14.1027
14.1449
14.7663
14.5939
14.432
14.282
14.143
14.0219
13.9115
13.8194
13.737
13.6698
13.6102
13.5633
13.5181
13.4871
13.4516
13.4341
13.402
13.4005
14.7658
14.5945
14.4321
14.2803
14.1362
14.0032
13.8782
13.7644
13.6582
13.5629
13.4736
13.3952
13.3198
13.2561
13.1916
13.1408
13.0838
13.0451
14.7657
14.5943
14.4321
14.2798
14.1353
13.9999
13.8715
13.7518
13.6385
13.5337
13.4341
13.343
13.2557
13.1771
13.1003
13.0328
12.9647
12.9074
14.7657
14.5941
14.432
14.2794
14.1349
13.9989
13.8699
13.7485
13.6332
13.525
13.422
13.3257
13.2338
13.1484
13.0663
12.9906
12.9172
12.8502
14.7657
14.5939
14.4318
14.279
14.1346
13.9983
13.8691
13.7472
13.6315
13.5223
13.4184
13.3204
13.227
13.139
13.055
12.9759
12.9002
12.8291
14.7657
14.5938
14.4317
14.2787
14.1342
13.9977
13.8686
13.7464
13.6307
13.5211
13.4171
13.3185
13.2249
13.136
13.0516
12.9714
12.8951
12.8227
14.7657
14.5937
14.4315
14.2785
14.1339
13.9973
13.8681
13.7458
13.63
13.5202
13.4161
13.3174
13.2236
13.1346
13.05
12.9696
12.8931
12.8204
14.7657
14.5937
14.4315
14.2783
14.1337
13.997
13.8677
13.7453
13.6294
13.5195
13.4154
13.3165
13.2227
13.1336
13.0489
12.9684
12.8918
12.819
14.7657
14.5937
14.4314
14.2782
14.1335
13.9968
13.8674
13.7449
13.629
13.5191
13.4148
13.3159
13.222
13.1328
13.0481
12.9675
12.8908
12.8179
14.7657
14.5937
14.4314
14.2782
14.1335
13.9967
13.8673
13.7448
13.6288
13.5189
13.4146
13.3156
13.2217
13.1325
13.0477
12.967
12.8903
12.8174
14.7657
14.5937
14.4314
14.2782
14.1336
13.9968
13.8674
13.745
13.629
13.519
13.4148
13.3158
13.2219
13.1327
13.0479
12.9673
12.8906
12.8177
14.7657
14.5937
14.4315
14.2784
14.1337
13.997
13.8677
13.7453
13.6294
13.5195
13.4154
13.3166
13.2229
13.1338
13.0493
12.9689
12.8926
12.8199
14.7657
14.5937
14.4316
14.2785
14.1341
13.9974
13.8685
13.7464
13.6312
13.522
13.419
13.3213
13.2293
13.1418
13.0594
12.981
12.9073
12.8368
14.7658
14.5937
14.4318
14.2788
14.1353
14.0002
13.8742
13.756
13.6463
13.5435
13.4485
13.3591
13.277
13.1992
13.1282
13.0601
12.9988
12.9386
14.7655
14.5928
14.4328
14.2844
14.1515
14.0321
13.929
13.8375
13.7593
13.6894
13.6306
13.5769
13.5328
13.4905
13.4574
13.423
13.3989
13.3693
14.7592
14.5932
14.4603
14.3602
14.3029
14.2766
14.2805
14.2921
14.3211
14.3531
14.3959
14.4346
14.4825
14.5217
14.572
14.609
14.6617
14.694
14.7213
14.6911
14.754
14.9176
15.1828
15.4611
15.7476
16.012
16.2724
16.5039
16.7362
16.9387
17.1508
17.3311
17.5311
17.6938
17.8891
18.0362
14.7477
15.5124
16.5473
17.6841
18.7044
19.5676
20.3373
20.9969
21.6196
22.1663
22.7192
23.2111
23.7403
24.2048
24.7333
25.1833
25.7257
26.1668
15.9871
20.9921
25.0238
27.7605
29.7847
31.3586
32.7773
34.0582
35.3599
36.6169
37.9762
39.2981
40.7628
42.1472
43.7196
45.1758
46.8862
48.3612
29.9032
47.2183
54.8697
58.6737
61.6144
64.4326
67.5816
70.9788
74.7405
78.717
82.9887
87.3487
91.9103
96.4562
101.108
105.63
110.184
114.586
165.798
160.075
154.899
149.565
144.479
139.678
135.615
132.109
129.27
126.974
125.32
124.045
123.341
122.826
122.843
122.961
123.286
123.83
0.155506
0.199771
0.373846
0.527234
0.672389
0.835572
1.02429
1.24899
1.51591
1.82445
2.16896
2.5414
2.93379
3.33899
3.75117
4.16542
4.57764
4.98417
5.38168
5.76697
6.13698
6.48881
6.81985
7.12808
7.41227
7.67249
7.9102
8.12887
8.31693
8.47723
8.74255
8.96256
9.19791
39.8486
42.1719
43.3088
44.0129
44.3547
44.6205
44.1313
42.6779
41.156
41.6562
46.0644
48.6178
52.4458
55.8692
59.7492
63.6531
67.799
72.08
76.5542
81.1959
86.0235
91.0316
96.2284
101.614
107.193
112.967
118.94
125.112
131.487
138.065
144.849
151.836
159.031
166.429
174.033
181.838
189.846
198.051
206.453
215.045
223.826
232.787
241.927
251.235
260.708
270.335
280.111
290.023
300.066
310.226
320.494
330.856
341.302
351.815
362.383
372.988
383.614
394.241
404.846
415.404
425.891
436.28
446.547
456.683
466.707
476.701
486.511
496.2
505.724
515.085
524.258
533.233
541.992
550.519
558.802
566.824
574.573
582.033
589.192
596.037
602.556
608.736
614.569
620.041
625.145
629.871
634.214
638.163
641.713
644.854
647.585
649.899
651.797
653.269
654.308
654.978
655.27
655.061
654.385
653.263
651.827
650.051
647.803
645.181
642.174
638.796
635.056
630.965
626.536
621.78
616.704
611.324
605.651
599.7
593.486
587.023
580.327
573.413
566.296
558.993
551.518
543.889
536.119
528.226
520.226
512.137
503.979
495.785
487.624
479.951
475.158
471.944
468.834
465.698
462.525
459.32
456.088
452.835
449.561
446.26
442.916
439.495
435.917
432.023
427.366
421.064
396.002
0.800308
0.499
0.505638
0.570736
0.671027
0.801215
0.963433
1.16001
1.39159
1.65618
1.9499
2.26784
2.60532
2.958
3.32242
3.69556
4.07519
4.45939
4.84695
5.23713
5.63018
6.02754
6.43245
6.85102
7.29282
7.77359
8.31646
8.95733
9.75625
10.8046
12.2389
14.2518
17.1766
21.5574
22.27
22.5817
22.6347
22.8321
23.2528
23.8505
24.7112
26.0086
27.2937
29.0854
30.7415
32.5359
34.3258
36.2055
38.1306
40.1289
42.1899
44.3217
46.5225
48.7955
51.1408
53.5599
56.0534
58.6223
61.267
63.9882
66.7861
69.6609
72.6126
75.6412
78.7462
81.9274
85.184
88.5153
91.9201
95.3975
98.9459
102.564
106.249
110.001
113.815
117.691
121.625
125.614
129.656
133.746
137.882
142.059
146.274
150.521
154.797
159.095
163.411
167.739
172.071
176.403
180.725
185.031
189.313
193.565
197.783
201.967
206.129
210.295
214.524
218.682
222.792
226.841
230.826
234.739
238.575
242.328
245.992
249.561
253.03
256.392
259.643
262.777
265.789
268.675
271.429
274.047
276.524
278.858
281.043
283.078
284.958
286.681
288.242
289.641
290.876
291.944
292.846
293.58
294.153
294.556
294.771
294.808
294.677
294.402
293.976
293.372
292.609
291.688
290.611
289.382
288.005
286.483
284.821
283.021
281.089
279.03
276.848
274.549
272.138
269.621
267.004
264.292
261.492
258.609
255.65
252.62
249.527
246.375
243.174
239.93
236.656
233.382
230.227
227.619
225.37
223.19
221.016
218.836
216.651
214.463
212.276
210.092
207.913
205.741
203.576
201.42
199.259
197.15
195.056
191.588
1.71604
0.889741
0.802526
0.835844
0.920188
1.04314
1.20229
1.39699
1.62593
1.88632
2.17432
2.48563
2.81636
3.16317
3.52359
3.89577
4.27854
4.67124
5.07378
5.48668
5.91135
6.35044
6.80834
7.29215
7.81227
8.38392
9.02696
9.76763
10.629
11.6344
12.7973
14.113
15.5314
16.8911
17.6507
18.315
19.0057
19.7956
20.6968
21.7089
22.8319
24.0441
25.3501
26.7374
28.1514
29.6206
31.1355
32.7059
34.3283
36.0056
37.7373
39.5247
41.3679
43.2679
45.225
47.2399
49.313
51.4446
53.6353
55.8853
58.1946
60.5634
62.9914
65.4787
68.0249
70.6298
73.2927
76.0132
78.7904
81.6236
84.5116
87.4533
90.4473
93.4922
96.5864
99.7279
102.915
106.145
109.416
112.726
116.071
119.448
122.856
126.289
129.746
133.221
136.711
140.213
143.721
147.232
150.741
154.245
157.739
161.222
164.693
168.152
171.603
175.051
178.485
181.879
185.231
188.536
191.789
194.985
198.118
201.185
204.179
207.097
209.933
212.682
215.342
217.906
220.372
222.734
224.989
227.133
229.163
231.076
232.868
234.537
236.08
237.495
238.778
239.929
240.946
241.827
242.573
243.182
243.655
243.988
244.166
244.21
244.121
243.903
243.556
243.07
242.453
241.707
240.833
239.835
238.716
237.478
236.126
234.661
233.088
231.411
229.634
227.761
225.797
223.746
221.613
219.403
217.12
214.769
212.356
209.886
207.362
204.792
202.18
199.533
196.861
194.184
191.559
189.124
186.839
184.607
182.39
180.178
177.97
175.768
173.576
171.397
169.234
167.094
164.983
162.918
160.913
159.061
157.402
155.775
2.77715
1.33176
1.14094
1.14261
1.21936
1.34347
1.50692
1.70644
1.93958
2.20336
2.4943
2.80875
3.14344
3.49572
3.86371
4.24623
4.64275
5.05325
5.47817
5.91839
6.3753
6.85101
7.34844
7.8719
8.42701
9.02135
9.66361
10.3635
11.1295
11.9667
12.8723
13.831
14.8093
15.7572
16.6325
17.5161
18.445
19.4358
20.4928
21.6137
22.7969
24.0349
25.3244
26.6543
28.0239
29.4378
30.8977
32.4066
33.9652
35.5749
37.2363
38.95
40.7169
42.5374
44.4123
46.342
48.327
50.3678
52.4648
54.6183
56.8288
59.0963
61.421
63.8029
66.2421
68.7384
71.2915
73.901
76.5664
79.2871
82.0622
84.891
87.7721
90.7045
93.6867
96.7171
99.7938
102.915
106.079
109.282
112.523
115.799
119.107
122.444
125.806
129.19
132.593
136.011
139.44
142.877
146.318
149.759
153.197
156.63
160.056
163.472
166.878
170.268
173.632
176.96
180.246
183.486
186.674
189.806
192.876
195.879
198.81
201.664
204.436
207.123
209.719
212.219
214.62
216.918
219.109
221.188
223.153
225.001
226.728
228.331
229.809
231.157
232.376
233.462
234.414
235.232
235.914
236.46
236.87
237.136
237.248
237.244
237.101
236.827
236.422
235.883
235.215
234.419
233.499
232.456
231.295
230.017
228.628
227.13
225.526
223.822
222.021
220.127
218.146
216.081
213.938
211.721
209.435
207.086
204.677
202.214
199.703
197.147
194.554
191.929
189.281
186.626
183.997
181.454
178.989
176.564
174.158
171.762
169.378
167.006
164.651
162.317
160.009
157.733
155.5
153.327
151.246
149.343
147.664
146.199
3.8528
1.78789
1.48811
1.45765
1.52351
1.64579
1.8109
2.0131
2.24885
2.51498
2.80827
3.12556
3.46404
3.82146
4.19626
4.58754
4.99501
5.41885
5.85962
6.31822
6.79579
7.2938
7.81399
8.35862
8.93033
9.53253
10.169
10.8439
11.5614
12.3244
13.1333
13.9841
14.8672
15.7717
16.6956
17.6538
18.6557
19.7055
20.8034
21.9473
23.1358
24.3677
25.6433
26.9682
28.3382
29.754
31.2171
32.729
34.2911
35.9047
37.5707
39.2902
41.0641
42.8934
44.7791
46.7216
48.7215
50.7796
52.8966
55.073
57.3094
59.6064
61.9643
64.3835
66.8641
69.4064
72.0103
74.6757
77.4023
80.1898
83.0375
85.9447
88.9105
91.9338
95.0133
98.1476
101.335
104.573
107.861
111.195
114.573
117.993
121.451
124.944
128.469
132.023
135.601
139.2
142.816
146.445
150.083
153.726
157.37
161.011
164.645
168.266
171.87
175.45
179
182.511
185.979
189.397
192.76
196.062
199.297
202.46
205.545
208.547
211.46
214.281
217.002
219.621
222.131
224.529
226.811
228.972
231.01
232.919
234.698
236.343
237.852
239.222
240.451
241.537
242.48
243.277
243.928
244.434
244.791
244.987
245.041
244.958
244.728
244.357
243.846
243.194
242.405
241.482
240.427
239.244
237.936
236.507
234.961
233.302
231.533
229.661
227.688
225.621
223.464
221.221
218.9
216.503
214.038
211.509
208.921
206.28
203.592
200.861
198.095
195.298
192.48
189.654
186.84
184.069
181.344
178.65
175.977
173.319
170.678
168.057
165.46
162.892
160.359
157.871
155.439
153.089
150.851
148.803
146.978
145.339
4.88395
2.23255
1.82473
1.76155
1.81439
1.93219
2.09615
2.29819
2.53372
2.79931
3.0919
3.40866
3.74714
4.10535
4.48192
4.87609
5.28761
5.71672
6.16399
6.63031
7.11675
7.62459
8.15522
8.71028
9.29151
9.90097
10.5408
11.2135
11.9214
12.6667
13.4509
14.2744
15.136
16.034
16.9693
17.9452
18.9643
20.028
21.1366
22.2898
23.4878
24.7314
26.0217
27.3603
28.7473
30.1836
31.6703
33.2088
34.8006
36.4468
38.1489
39.908
41.7253
43.6019
45.5386
47.5369
49.5981
51.7233
53.9135
56.1696
58.4926
60.8834
63.3426
65.8711
68.4692
71.1375
73.8762
76.6855
79.5652
82.5153
85.5354
88.6247
91.7825
95.0078
98.2993
101.655
105.074
108.554
112.093
115.687
119.335
123.034
126.779
130.567
134.395
138.259
142.154
146.077
150.021
153.984
157.96
161.943
165.93
169.914
173.89
177.851
181.792
185.704
189.582
193.417
197.204
200.936
204.607
208.209
211.737
215.183
218.543
221.808
224.975
228.036
230.987
233.821
236.534
239.121
241.577
243.897
246.078
248.116
250.007
251.749
253.338
254.772
256.048
257.166
258.123
258.919
259.552
260.024
260.326
260.455
260.436
260.257
259.919
259.424
258.775
257.973
257.021
255.923
254.683
253.303
251.788
250.143
248.372
246.48
244.471
242.351
240.126
237.8
235.379
232.87
230.277
227.608
224.867
222.061
219.196
216.278
213.312
210.305
207.264
204.194
201.103
198.003
194.909
191.839
188.8
185.786
182.794
179.823
176.875
173.953
171.063
168.21
165.402
162.65
159.969
157.382
154.924
152.658
150.603
148.668
5.83195
2.64827
2.13695
2.0408
2.0789
2.18988
2.35
2.549
2.78129
3.04313
3.33149
3.64381
3.97788
4.33196
4.70483
5.09582
5.50471
5.93178
6.37759
6.84306
7.32925
7.83747
8.36907
8.92556
9.5085
10.1196
10.7607
11.4335
12.14
12.8821
13.6613
14.4791
15.3364
16.2339
17.1726
18.1539
19.1793
20.2497
21.3661
22.5292
23.7398
24.999
26.3082
27.6686
29.0813
30.5474
32.0685
33.6458
35.281
36.9757
38.7315
40.5498
42.4323
44.3806
46.3961
48.4805
50.6353
52.8621
55.1624
57.5375
59.9888
62.5175
65.1248
67.8117
70.5791
73.4278
76.3584
79.3712
82.4665
85.6443
88.9042
92.246
95.6687
99.1714
102.753
106.411
110.145
113.951
117.828
121.772
125.781
129.851
133.977
138.157
142.386
146.658
150.97
155.315
159.689
164.085
168.499
172.923
177.352
181.778
186.195
190.595
194.971
199.315
203.619
207.875
212.075
216.213
220.281
224.271
228.175
231.987
235.699
239.304
242.796
246.167
249.412
252.523
255.496
258.325
261.004
263.53
265.896
268.099
270.136
272.003
273.696
275.214
276.554
277.714
278.693
279.491
280.106
280.539
280.775
280.833
280.718
280.423
279.952
279.307
278.489
277.503
276.352
275.039
273.569
271.947
270.178
268.266
266.218
264.038
261.732
259.306
256.768
254.122
251.375
248.534
245.606
242.598
239.515
236.365
233.155
229.891
226.581
223.229
219.844
216.432
213.002
209.562
206.124
202.703
199.304
195.93
192.579
189.255
185.959
182.698
179.475
176.299
173.178
170.124
167.153
164.289
161.564
159.032
156.693
154.415
6.66924
3.02167
2.41447
2.28578
2.30782
2.40988
2.56374
2.75706
2.98333
3.23847
3.51944
3.82386
4.14973
4.49556
4.86028
5.24334
5.64459
6.06432
6.50317
6.9621
7.44223
7.94492
8.47156
9.02367
9.60252
10.21
10.8479
11.5179
12.2217
12.9611
13.7378
14.5533
15.4092
16.3067
17.2471
18.2317
19.2619
20.339
21.4642
22.639
23.8644
25.1419
26.4731
27.8596
29.3028
30.8044
32.3663
33.9901
35.678
37.4318
39.2534
41.1449
43.1083
45.1457
47.259
49.4503
51.7218
54.0753
56.5128
59.0363
61.6475
64.3482
67.1398
70.024
73.002
76.0748
79.2435
82.5087
85.8708
89.33
92.8862
96.5391
100.288
104.131
108.068
112.097
116.214
120.419
124.708
129.077
133.524
138.043
142.631
147.282
151.992
156.755
161.565
166.415
171.3
176.213
181.146
186.091
191.042
195.99
200.927
205.844
210.732
215.583
220.387
225.136
229.821
234.433
238.963
243.404
247.746
251.981
256.1
260.096
263.962
267.688
271.269
274.697
277.966
281.069
284.001
286.756
289.329
291.717
293.914
295.917
297.723
299.329
300.734
301.935
302.931
303.721
304.307
304.682
304.841
304.807
304.571
304.135
303.503
302.675
301.657
300.451
299.063
297.496
295.757
293.85
291.782
289.559
287.186
284.67
282.018
279.238
276.335
273.318
270.193
266.969
263.653
260.253
256.775
253.229
249.621
245.959
242.251
238.502
234.722
230.917
227.095
223.265
219.438
215.623
211.829
208.06
204.318
200.607
196.932
193.298
189.712
186.181
182.716
179.328
176.035
172.861
169.834
166.999
164.34
161.696
7.37909
3.3441
2.65077
2.49062
2.49576
2.58714
2.73258
2.91794
3.13585
3.38185
3.65291
3.94675
4.2616
4.59615
4.94956
5.32141
5.7116
6.12034
6.54841
6.99695
7.46722
7.96065
8.47881
9.02357
9.59638
10.1984
10.8312
11.4964
12.1958
12.9311
13.7041
14.5164
15.3698
16.2659
17.2061
18.192
19.2253
20.3075
21.4405
22.626
23.8662
25.1641
26.5205
27.937
29.4148
30.9567
32.5651
34.2426
35.9915
37.8142
39.7131
41.6908
43.7498
45.8926
48.122
50.4405
52.8507
55.3551
57.9563
60.6567
63.4586
66.3642
69.3757
72.4949
75.7235
79.063
82.5147
86.0795
89.758
93.5505
97.4571
101.477
105.61
109.855
114.21
118.672
123.24
127.91
132.679
137.543
142.497
147.538
152.658
157.854
163.117
168.443
173.823
179.25
184.718
190.216
195.737
201.273
206.813
212.348
217.869
223.366
228.827
234.244
239.606
244.902
250.123
255.259
260.3
265.235
270.056
274.752
279.315
283.735
288.003
292.111
296.051
299.816
303.397
306.788
309.983
312.976
315.762
318.335
320.691
322.826
324.738
326.423
327.88
329.106
330.102
330.866
331.399
331.691
331.755
331.594
331.207
330.597
329.769
328.725
327.469
326.005
324.341
322.48
320.43
318.196
315.786
313.207
310.465
307.569
304.527
301.346
298.034
294.6
291.053
287.4
283.651
279.814
275.898
271.911
267.862
263.759
259.61
255.424
251.207
246.968
242.715
238.456
234.201
229.96
225.741
221.548
217.388
213.264
209.183
205.152
201.176
197.266
193.431
189.685
186.045
182.533
179.175
176.008
173.002
169.983
7.95248
3.61096
2.84307
2.65221
2.64087
2.72011
2.85536
3.03087
3.23851
3.47352
3.73279
4.01416
4.31602
4.63709
4.97691
5.33556
5.7135
6.11193
6.53049
6.96988
7.43119
7.91574
8.42494
8.96015
9.52284
10.1148
10.7378
11.3937
12.0845
12.8121
13.5783
14.385
15.234
16.1273
17.0667
18.0541
19.0915
20.181
21.3247
22.5247
23.7831
25.1017
26.4833
27.9308
29.4478
31.0361
32.6988
34.439
36.2595
38.1635
40.1537
42.2335
44.4059
46.674
49.0413
51.5108
54.0858
56.7694
59.5648
62.4751
65.503
68.6514
71.9228
75.3195
78.8437
82.4973
86.2815
90.1978
94.2467
98.4287
102.744
107.191
111.77
116.479
121.316
126.278
131.363
136.566
141.883
147.31
152.842
158.472
164.193
170
175.885
181.84
187.855
193.924
200.035
206.181
212.35
218.532
224.716
230.891
237.047
243.171
249.251
255.277
261.236
267.117
272.909
278.6
284.178
289.634
294.955
300.131
305.152
310.008
314.689
319.185
323.488
327.589
331.48
335.155
338.605
341.825
344.809
347.551
350.048
352.295
354.29
356.029
357.511
358.734
359.698
360.404
360.848
361.03
360.958
360.631
360.055
359.233
358.168
356.866
355.33
353.567
351.584
349.386
346.981
344.378
341.583
338.605
335.452
332.134
328.658
325.035
321.273
317.382
313.371
309.251
305.03
300.718
296.326
291.862
287.336
282.757
278.133
273.474
268.788
264.083
259.368
254.651
249.941
245.247
240.578
235.94
231.34
226.783
222.276
217.827
213.443
209.134
204.911
200.787
196.779
192.907
189.196
185.676
182.307
178.907
8.38827
3.82072
2.99073
2.77124
2.74379
2.81
2.93371
3.09792
3.29386
3.51651
3.76254
4.03032
4.31895
4.6284
4.95726
5.30493
5.67133
6.05634
6.46065
6.88574
7.33289
7.80347
8.2989
8.82069
9.37054
9.95045
10.5624
11.2081
11.8895
12.6086
13.3675
14.1682
15.0129
15.9039
16.8434
17.8337
18.8772
19.9765
21.1341
22.3527
23.6351
24.9842
26.4031
27.895
29.4614
31.1063
32.835
34.6519
36.5606
38.5643
40.6667
42.8715
45.1825
47.6036
50.1388
52.7919
55.5669
58.4675
61.4976
64.6607
67.9603
71.3997
74.9818
78.7095
82.585
86.6106
90.7877
95.1176
99.6012
104.238
109.029
113.973
119.067
124.311
129.702
135.235
140.908
146.715
152.652
158.713
164.89
171.177
177.567
184.05
190.619
197.263
203.972
210.737
217.546
224.387
231.25
238.123
244.991
251.844
258.668
265.449
272.176
278.834
285.41
291.892
298.267
304.521
310.643
316.62
322.441
328.092
333.564
338.844
343.923
348.79
353.435
357.85
362.026
365.955
369.631
373.045
376.193
379.07
381.67
383.99
386.026
387.777
389.241
390.417
391.305
391.904
392.216
392.242
391.985
391.445
390.632
389.549
388.201
386.593
384.731
382.621
380.273
377.692
374.889
371.871
368.648
365.229
361.624
357.842
353.894
349.79
345.541
341.156
336.647
332.025
327.299
322.481
317.582
312.611
307.579
302.495
297.371
292.214
287.034
281.839
276.639
271.441
266.256
261.091
255.956
250.857
245.803
240.799
235.853
230.973
226.168
221.447
216.822
212.306
207.916
203.671
199.591
195.702
191.959
188.18
8.69197
3.97487
3.09557
2.85061
2.80743
2.86011
2.97135
3.12307
3.30644
3.51684
3.75211
4.00903
4.28586
4.58102
4.89414
5.22561
5.57576
5.94514
6.33509
6.74634
7.18001
7.63742
8.12005
8.62954
9.16766
9.73635
10.3376
10.9735
11.6462
12.3579
13.111
13.908
14.7513
15.6437
16.5877
17.5864
18.6426
19.7594
20.9399
22.1873
23.5053
24.8979
26.3674
27.9162
29.5478
31.2703
33.0879
35.0056
37.0294
39.163
41.4104
43.776
46.2645
48.8805
51.6286
54.5135
57.5398
60.7119
64.0341
67.5106
71.1453
74.9419
78.9038
83.0337
87.3344
91.8077
96.4553
101.278
106.277
111.451
116.8
122.321
128.014
133.875
139.9
146.084
152.424
158.912
165.543
172.309
179.201
186.213
193.333
200.552
207.859
215.244
222.694
230.197
237.742
245.314
252.9
260.487
268.06
275.605
283.108
290.553
297.927
305.214
312.401
319.472
326.413
333.212
339.854
346.325
352.613
358.705
364.59
370.254
375.687
380.879
385.818
390.496
394.905
399.035
402.879
406.431
409.685
412.635
415.278
417.609
419.627
421.328
422.712
423.779
424.529
424.962
425.082
424.892
424.389
423.578
422.47
421.07
419.384
417.416
415.175
412.669
409.905
406.895
403.646
400.169
396.475
392.574
388.476
384.193
379.737
375.118
370.348
365.439
360.402
355.249
349.992
344.643
339.213
333.713
328.154
322.547
316.903
311.231
305.54
299.841
294.142
288.451
282.779
277.133
271.522
265.955
260.439
254.982
249.591
244.274
239.042
233.903
228.869
223.955
219.175
214.548
210.09
205.826
201.706
197.551
8.87598
4.07807
3.16138
2.89434
2.83616
2.87514
2.97412
3.11542
3.28866
3.48791
3.70896
3.95036
4.21114
4.49076
4.78931
5.10662
5.44298
5.79901
6.17559
6.57377
6.99476
7.43996
7.91098
8.40956
8.93763
9.49727
10.0907
10.7202
11.3882
12.0975
12.8508
13.651
14.5011
15.4043
16.3637
17.3829
18.4659
19.6166
20.838
22.1338
23.5069
24.9583
26.4962
28.1279
29.8597
31.6967
33.644
35.7075
37.8933
40.2068
42.653
45.2374
47.9652
50.8421
53.8733
57.0641
60.4196
63.9448
67.6445
71.5231
75.5848
79.8333
84.2719
88.9035
93.7302
98.7537
103.975
109.394
115.011
120.825
126.833
133.034
139.422
145.995
152.747
159.671
166.762
174.012
181.412
188.953
196.626
204.419
212.323
220.324
228.411
236.571
244.79
253.053
261.348
269.658
277.969
286.266
294.533
302.753
310.912
318.993
326.98
334.857
342.609
350.22
357.675
364.959
372.058
378.958
385.645
392.106
398.328
404.299
410.007
415.441
420.592
425.449
430.004
434.248
438.174
441.777
445.05
447.988
450.587
452.844
454.758
456.326
457.548
458.425
458.957
459.147
459.003
458.52
457.695
456.545
455.077
453.296
451.208
448.821
446.144
443.186
439.956
436.465
432.724
428.745
424.537
420.115
415.488
410.67
405.673
400.51
395.193
389.734
384.146
378.443
372.636
366.739
360.763
354.72
348.623
342.483
336.31
330.115
323.908
317.699
311.496
305.309
299.147
293.019
286.934
280.899
274.923
269.014
263.179
257.428
251.77
246.215
240.774
235.461
230.291
225.281
220.445
215.805
211.31
206.791
8.93442
4.1299
3.19057
2.90618
2.83554
2.86454
2.95329
3.08188
3.2409
3.42541
3.63255
3.86058
4.10827
4.37503
4.66071
4.96544
5.28963
5.63399
5.99943
6.38711
6.79838
7.23482
7.69821
8.19058
8.71413
9.27125
9.86442
10.4963
11.1699
11.8883
12.655
13.4742
14.3491
15.2831
16.2799
17.3432
18.4758
19.68
20.9632
22.3317
23.7916
25.3504
27.0132
28.7868
30.678
32.6931
34.8387
37.1219
39.5494
42.1272
44.8619
47.7601
50.8283
54.0726
57.4988
61.1123
64.9186
68.9228
73.1295
77.5429
82.167
87.0049
92.0592
97.3319
102.824
108.537
114.469
120.619
126.987
133.568
140.36
147.357
154.554
161.944
169.522
177.278
185.204
193.29
201.526
209.9
218.401
227.016
235.733
244.537
253.414
262.35
271.329
280.336
289.355
298.37
307.363
316.32
325.222
334.052
342.795
351.432
359.947
368.324
376.545
384.596
392.46
400.121
407.566
414.779
421.747
428.456
434.894
441.048
446.907
452.46
457.696
462.607
467.184
471.419
475.306
478.838
482.01
484.818
487.258
489.329
491.028
492.356
493.311
493.897
494.115
493.973
493.471
492.598
491.373
489.804
487.899
485.664
483.107
480.236
477.062
473.595
469.845
465.825
461.546
457.022
452.263
447.284
442.097
436.716
431.153
425.423
419.539
413.514
407.363
401.097
394.732
388.28
381.754
375.166
368.53
361.856
355.157
348.443
341.724
335.011
328.312
321.636
314.994
308.393
301.843
295.351
288.926
282.577
276.31
270.135
264.062
258.101
252.263
246.56
241.008
235.622
230.414
225.405
220.544
215.679
8.9157
4.13975
3.19013
2.89629
2.81596
2.83206
2.9073
3.02315
3.17018
3.34301
3.53862
3.75525
3.99188
4.24807
4.52374
4.81921
5.13508
5.47224
5.8318
6.21508
6.62368
7.05946
7.52455
8.02145
8.55319
9.12289
9.73308
10.3869
11.0879
11.8395
12.6449
13.5057
14.4274
15.4164
16.4783
17.6188
18.8443
20.1619
21.577
23.0965
24.728
26.4797
28.3587
30.3726
32.5292
34.8362
37.3014
39.9326
42.7376
45.7238
48.8992
52.2716
55.8486
59.6361
63.6393
67.8632
72.3123
76.9908
81.9022
87.0496
92.4353
98.0607
103.927
110.033
116.379
122.962
129.781
136.83
144.107
151.604
159.317
167.237
175.357
183.668
192.16
200.823
209.646
218.616
227.721
236.948
246.284
255.713
265.221
274.794
284.415
294.068
303.737
313.405
323.055
332.671
342.234
351.729
361.137
370.44
379.622
388.666
397.553
406.268
414.795
423.116
431.216
439.08
446.693
454.042
461.112
467.89
474.365
480.524
486.356
491.852
497
501.794
506.224
510.285
513.969
517.272
520.189
522.717
524.853
526.595
527.943
528.9
529.46
529.635
529.432
528.842
527.861
526.508
524.789
522.713
520.289
517.522
514.423
511.001
507.268
503.235
498.915
494.319
489.461
484.354
479.012
473.448
467.677
461.712
455.569
449.26
442.801
436.205
429.487
422.661
415.74
408.739
401.671
394.549
387.386
380.193
372.983
365.766
358.554
351.355
344.18
337.037
329.935
322.883
315.89
308.964
302.113
295.345
288.668
282.091
275.624
269.277
263.06
256.986
251.068
245.321
239.757
234.395
229.185
223.996
8.85622
4.1293
3.1733
2.86688
2.77435
2.77955
2.84441
2.95013
3.08732
3.25086
3.43791
3.64687
3.8769
4.12774
4.39956
4.69295
5.00898
5.34937
5.71548
6.10879
6.53134
6.98546
7.47369
7.99851
8.56182
9.16567
9.81599
10.5178
11.2761
12.0961
12.9835
13.9455
14.9877
16.1165
17.3393
18.6638
20.0984
21.652
23.3329
25.1499
27.1123
29.2294
31.5105
33.9645
36.6006
39.4275
42.4534
45.6853
49.1298
52.7969
56.6957
60.8355
65.2281
69.8744
74.7757
79.934
85.3507
91.027
96.9632
103.159
109.613
116.323
123.286
130.498
137.954
145.65
153.577
161.729
170.098
178.675
187.45
196.413
205.553
214.859
224.318
233.918
243.646
253.488
263.429
273.455
283.551
293.703
303.893
314.108
324.329
334.541
344.728
354.873
364.958
374.967
384.883
394.689
404.368
413.903
423.277
432.474
441.477
450.27
458.838
467.164
475.235
483.036
490.552
497.772
504.681
511.269
517.523
523.433
528.988
534.179
538.999
543.439
547.492
551.153
554.416
557.278
559.734
561.783
563.42
564.651
565.469
565.889
565.884
565.52
564.722
563.532
561.955
559.998
557.668
554.975
551.929
548.536
544.806
540.753
536.388
531.722
526.77
521.545
516.059
510.329
504.367
498.188
491.808
485.24
478.5
471.602
464.561
457.392
450.11
442.728
435.261
427.722
420.127
412.487
404.815
397.124
389.426
381.731
374.05
366.392
358.768
351.185
343.652
336.178
328.772
321.44
314.191
307.034
299.976
293.025
286.191
279.483
272.912
266.49
260.23
254.145
248.244
242.55
237.01
231.526
8.73463
4.09466
3.13614
2.8225
2.72333
2.72209
2.78105
2.8819
3.0155
3.1771
3.36436
3.57631
3.81207
4.0717
4.35574
4.66506
5.00053
5.36242
5.75295
6.17584
6.63453
7.13268
7.67434
8.26409
8.9075
9.61074
10.3791
11.2191
12.1384
13.1449
14.2474
15.4554
16.7784
18.2258
19.8083
21.5367
23.4223
25.4766
27.711
30.1368
32.7651
35.6066
38.6715
41.9696
45.51
49.301
53.3493
57.6611
62.242
67.098
72.2348
77.6595
83.3766
89.3787
95.6615
102.221
109.052
116.15
123.508
131.121
138.98
147.079
155.408
163.959
172.723
181.688
190.846
200.184
209.693
219.359
229.172
239.119
249.187
259.365
269.638
279.993
290.417
300.896
311.417
321.964
332.525
343.083
353.625
364.136
374.601
385.005
395.333
405.569
415.698
425.705
435.574
445.29
454.838
464.202
473.367
482.318
491.041
499.521
507.743
515.694
523.361
530.73
537.789
544.526
550.931
556.992
562.699
568.044
573.016
577.608
581.813
585.625
589.037
592.045
594.646
596.836
598.61
599.974
600.913
601.451
601.556
601.289
600.591
599.485
597.979
596.081
593.797
591.134
588.103
584.713
580.973
576.891
572.479
567.749
562.715
557.389
551.784
545.916
539.797
533.442
526.867
520.086
513.114
505.966
498.657
491.203
483.617
475.915
468.111
460.22
452.256
444.233
436.164
428.062
419.94
411.809
403.682
395.569
387.48
379.423
371.41
363.447
355.543
347.706
339.944
332.264
324.675
317.183
309.796
302.523
295.372
288.352
281.474
274.748
268.187
261.803
255.605
249.616
243.783
238.046
8.61261
4.04081
3.09049
2.77836
2.67972
2.67989
2.74277
2.84994
2.99239
3.1655
3.36649
3.59323
3.84717
4.12957
4.44209
4.7869
5.16684
5.58593
6.04805
6.55767
7.12034
7.74247
8.43137
9.19521
10.0431
10.985
12.031
13.1924
14.4818
15.9122
17.4974
19.2516
21.1893
23.3252
25.6743
28.2511
31.0695
34.1425
37.4825
41.1014
45.0092
49.2138
53.7211
58.5364
63.6646
69.1075
74.8634
80.9306
87.3088
93.9956
100.987
108.291
115.869
123.71
131.804
140.138
148.7
157.478
166.458
175.629
184.979
194.494
204.164
213.976
223.918
233.98
244.149
254.414
264.764
275.188
285.675
296.214
306.793
317.401
328.028
338.663
349.293
359.908
370.496
381.047
391.547
401.986
412.352
422.633
432.816
442.889
452.84
462.656
472.324
481.831
491.164
500.311
509.259
517.993
526.502
534.771
542.79
550.544
558.022
565.212
572.101
578.679
584.934
590.857
596.437
601.667
606.537
611.038
615.164
618.905
622.26
625.221
627.781
629.937