/*--------------------------------*- C++ -*----------------------------------*\
  =========                 |
  \\      /  F ield         | OpenFOAM: The Open Source CFD Toolbox
   \\    /   O peration     | Website:  https://openfoam.org
    \\  /    A nd           | Version:  11
     \\/     M anipulation  |
\*---------------------------------------------------------------------------*/
FoamFile
{
    format      ascii;
    class       volScalarField;
    location    "287";
    object      k;
}
// * * * * * * * * * * * * * * * * * * * * * * * * * * * * * * * * * * * * * //

dimensions      [0 2 -2 0 0 0 0];

internalField   nonuniform List<scalar> 
12225
(
0.362828
0.34399
0.327753
0.309809
0.295412
0.283467
0.275529
0.270278
0.270336
0.271886
0.276044
0.280716
0.289841
0.295631
0.306778
0.312676
0.325688
0.323695
0.440271
0.468738
0.461616
0.44837
0.450343
0.458314
0.474575
0.498484
0.524413
0.55206
0.58073
0.606105
0.633776
0.653792
0.679642
0.692906
0.71801
0.724149
0.390407
0.41786
0.420244
0.41683
0.411634
0.407802
0.408019
0.410035
0.414564
0.421381
0.430716
0.439704
0.451145
0.461136
0.472781
0.483487
0.493441
0.505747
0.377043
0.387169
0.391466
0.391343
0.39026
0.387882
0.385662
0.384078
0.382883
0.382896
0.383354
0.384377
0.386267
0.388458
0.390892
0.394221
0.396511
0.40092
0.374434
0.376094
0.378427
0.378665
0.378275
0.3772
0.375489
0.373737
0.37201
0.370455
0.369255
0.368109
0.367378
0.366802
0.366439
0.366326
0.366343
0.366685
0.373779
0.372704
0.372659
0.372365
0.371773
0.370818
0.369554
0.368083
0.366572
0.364977
0.363528
0.362064
0.360755
0.359529
0.358397
0.357425
0.356436
0.355778
0.373775
0.37174
0.370388
0.369284
0.368235
0.367114
0.365915
0.364587
0.363239
0.361808
0.360423
0.359024
0.357679
0.356384
0.355122
0.353968
0.352795
0.351803
0.373818
0.371559
0.369635
0.367976
0.366501
0.365108
0.363776
0.36243
0.361108
0.359767
0.358451
0.357145
0.355865
0.354624
0.353403
0.352252
0.351101
0.350054
0.373832
0.371553
0.369449
0.367525
0.365777
0.364154
0.362645
0.361199
0.359818
0.358474
0.357171
0.355904
0.354669
0.353477
0.35231
0.351198
0.350099
0.349075
0.373831
0.37156
0.369418
0.367405
0.365529
0.363773
0.362133
0.360585
0.359122
0.357728
0.356395
0.355119
0.353889
0.352712
0.351571
0.350483
0.349422
0.348422
0.373829
0.37156
0.369413
0.367378
0.365458
0.363645
0.361937
0.360324
0.358799
0.357353
0.35598
0.354673
0.353425
0.352237
0.351096
0.35001
0.348961
0.34797
0.373828
0.371558
0.369409
0.36737
0.365439
0.363609
0.361876
0.360234
0.358678
0.357202
0.3558
0.354469
0.353201
0.351995
0.350843
0.349748
0.348696
0.347702
0.373827
0.371556
0.369405
0.367365
0.36543
0.363593
0.361851
0.360197
0.358626
0.357134
0.355716
0.354368
0.353085
0.351865
0.350701
0.349595
0.348536
0.347532
0.373826
0.371555
0.369401
0.367359
0.365422
0.363583
0.361837
0.360178
0.3586
0.357101
0.355674
0.354317
0.353025
0.351795
0.350622
0.349506
0.34844
0.347427
0.373826
0.371553
0.369398
0.367355
0.365416
0.363575
0.361826
0.360164
0.358584
0.357081
0.355651
0.35429
0.352993
0.351758
0.35058
0.349458
0.348388
0.347368
0.373826
0.371552
0.369396
0.367351
0.36541
0.363567
0.361817
0.360153
0.358571
0.357067
0.355634
0.35427
0.352971
0.351734
0.350554
0.349429
0.348356
0.347333
0.373825
0.371551
0.369394
0.367348
0.365406
0.363562
0.36181
0.360145
0.358561
0.357055
0.355621
0.354256
0.352955
0.351716
0.350534
0.349408
0.348333
0.347308
0.373825
0.371551
0.369393
0.367346
0.365403
0.363558
0.361805
0.360139
0.358554
0.357047
0.355612
0.354245
0.352943
0.351703
0.35052
0.349392
0.348316
0.347289
0.373825
0.37155
0.369393
0.367345
0.365402
0.363557
0.361804
0.360137
0.358552
0.357043
0.355607
0.35424
0.352938
0.351696
0.350513
0.349384
0.348307
0.34728
0.373825
0.371551
0.369393
0.367347
0.365404
0.363559
0.361806
0.360139
0.358554
0.357046
0.355611
0.354244
0.352941
0.3517
0.350516
0.349388
0.348311
0.347284
0.373825
0.371551
0.369395
0.367349
0.365407
0.363563
0.361811
0.360145
0.358562
0.357055
0.355621
0.354255
0.352954
0.351715
0.350533
0.349406
0.348332
0.347307
0.373826
0.371552
0.369397
0.367352
0.365412
0.363571
0.361822
0.360161
0.358583
0.357083
0.355656
0.354298
0.353006
0.351774
0.350602
0.349482
0.348416
0.347397
0.373826
0.371554
0.369399
0.367359
0.365428
0.363602
0.361875
0.36024
0.35869
0.35722
0.355823
0.354493
0.353226
0.352018
0.350865
0.349762
0.34871
0.3477
0.373828
0.371551
0.369412
0.367417
0.365556
0.363819
0.362189
0.360651
0.359189
0.357793
0.356456
0.355171
0.353935
0.352745
0.3516
0.350495
0.349435
0.348409
0.373823
0.371554
0.369604
0.367893
0.366339
0.364892
0.363495
0.362122
0.360761
0.359413
0.35808
0.356769
0.355488
0.354237
0.353028
0.351855
0.350733
0.349644
0.373781
0.37199
0.371113
0.370265
0.36936
0.368311
0.367048
0.365629
0.36412
0.362575
0.36103
0.359522
0.358073
0.356682
0.355381
0.354141
0.353009
0.351923
0.374297
0.375564
0.377778
0.377858
0.377291
0.375885
0.373835
0.371641
0.369505
0.367482
0.365664
0.364084
0.36271
0.361535
0.36061
0.359818
0.359289
0.358801
0.378732
0.394393
0.398293
0.396565
0.392558
0.387608
0.383641
0.380455
0.378266
0.376852
0.376497
0.376751
0.3774
0.378699
0.380445
0.382425
0.38483
0.387141
0.408344
0.427539
0.422424
0.411051
0.402227
0.397925
0.398558
0.401119
0.405989
0.413043
0.421001
0.429835
0.438843
0.448201
0.457317
0.466565
0.475334
0.484195
0.366033
0.353412
0.341988
0.33021
0.318982
0.308382
0.299409
0.291674
0.285403
0.280334
0.276682
0.273868
0.272311
0.271186
0.271177
0.271524
0.272158
0.273389
0.000538985
0.00316314
0.00591985
0.00834322
0.0106331
0.0132
0.0161667
0.0196961
0.023892
0.0287402
0.0341574
0.0400107
0.0461799
0.0525453
0.0590211
0.0655221
0.0719906
0.0783638
0.0845982
0.0906441
0.0964642
0.102021
0.107275
0.112196
0.116737
0.120863
0.124494
0.127565
0.129938
0.131514
0.132087
0.13098
0.127593
0.120813
0.124567
0.128674
0.132796
0.137126
0.139465
0.143163
0.146131
0.147031
0.148992
0.158985
0.164759
0.17314
0.180516
0.188699
0.196745
0.205115
0.213572
0.222228
0.231026
0.239993
0.249113
0.258394
0.26783
0.277424
0.287172
0.297073
0.307125
0.317325
0.327671
0.33816
0.348786
0.359547
0.370435
0.381449
0.392579
0.403822
0.415169
0.426614
0.438147
0.449764
0.461452
0.473205
0.485011
0.496863
0.508748
0.520659
0.53258
0.544505
0.556418
0.56831
0.580166
0.591975
0.603722
0.615394
0.626974
0.638448
0.649797
0.660999
0.672033
0.682877
0.693507
0.703905
0.714066
0.724015
0.733843
0.743393
0.752737
0.761835
0.770693
0.779291
0.787625
0.79568
0.803449
0.810921
0.818088
0.82494
0.831468
0.837667
0.843526
0.849039
0.8542
0.859003
0.863441
0.867511
0.871206
0.874527
0.877466
0.880021
0.882187
0.883965
0.885352
0.886349
0.886952
0.887155
0.887019
0.886532
0.88559
0.884226
0.882451
0.88039
0.878016
0.875208
0.872065
0.868568
0.86473
0.860561
0.856067
0.851259
0.84615
0.840742
0.835047
0.829074
0.822836
0.816343
0.809607
0.80264
0.795455
0.788064
0.780479
0.772712
0.764778
0.756688
0.748455
0.740094
0.731619
0.723047
0.714408
0.705764
0.697518
0.691974
0.68806
0.684253
0.680414
0.676533
0.672613
0.668659
0.664676
0.660663
0.656616
0.652518
0.648335
0.643987
0.639317
0.633883
0.626801
0.600869
0.00277577
0.011609
0.0176544
0.0221338
0.0260591
0.0298673
0.0339158
0.0384118
0.0434491
0.0490209
0.0550612
0.061473
0.0681586
0.0750265
0.082003
0.0890236
0.0960385
0.103003
0.10988
0.116639
0.12325
0.129689
0.135931
0.141952
0.147719
0.153199
0.158343
0.163117
0.167481
0.171413
0.174879
0.178029
0.181259
0.185442
0.192896
0.201036
0.209906
0.219231
0.229216
0.240772
0.253352
0.266782
0.283252
0.296254
0.308169
0.32092
0.333994
0.347517
0.361362
0.375549
0.390052
0.404874
0.420012
0.435466
0.451236
0.467324
0.483729
0.500453
0.517497
0.534859
0.552539
0.570536
0.588849
0.607474
0.626408
0.645647
0.665186
0.685019
0.705139
0.725539
0.74621
0.767143
0.788327
0.809752
0.831405
0.853273
0.875341
0.897596
0.920022
0.942602
0.965318
0.988154
1.01109
1.0341
1.05718
1.08029
1.10342
1.12654
1.14963
1.17266
1.1956
1.21843
1.24111
1.2636
1.28586
1.30786
1.32951
1.35077
1.37155
1.39206
1.41225
1.43211
1.45162
1.47076
1.48951
1.50784
1.52574
1.54317
1.56013
1.57659
1.59253
1.60794
1.62279
1.63708
1.65077
1.66386
1.67634
1.68818
1.69938
1.70992
1.71979
1.72898
1.73749
1.74529
1.75239
1.75879
1.76447
1.76944
1.7737
1.77725
1.78009
1.7821
1.78326
1.78381
1.78383
1.783
1.78149
1.77928
1.77638
1.77281
1.76856
1.76367
1.75813
1.75196
1.74518
1.7378
1.72985
1.72133
1.71227
1.70268
1.6926
1.68203
1.671
1.65954
1.64766
1.63538
1.62274
1.60974
1.59643
1.58282
1.56894
1.55484
1.54067
1.52685
1.5132
1.49944
1.48555
1.47156
1.4575
1.44337
1.42921
1.41502
1.40081
1.38658
1.37231
1.35797
1.34338
1.32854
1.31207
1.27541
0.00595443
0.0200919
0.0281745
0.0341499
0.0394182
0.044523
0.0497686
0.0553339
0.0613048
0.0676913
0.0744543
0.0815271
0.0888381
0.0963194
0.103915
0.111579
0.119276
0.126978
0.134667
0.142327
0.14995
0.157534
0.165079
0.172594
0.180088
0.187586
0.195112
0.202711
0.210432
0.218351
0.226572
0.235263
0.244639
0.25497
0.26645
0.278803
0.291867
0.305654
0.32018
0.335434
0.351317
0.367924
0.384742
0.401029
0.417383
0.43414
0.451301
0.468884
0.48687
0.505253
0.524026
0.543187
0.562733
0.582664
0.602979
0.623679
0.644764
0.666234
0.688087
0.710323
0.732939
0.755934
0.779304
0.803045
0.827152
0.851619
0.87644
0.901607
0.927111
0.952943
0.979091
1.00554
1.03229
1.05931
1.0866
1.11413
1.1419
1.16987
1.19804
1.22638
1.25488
1.2835
1.31223
1.34104
1.36991
1.3988
1.42771
1.45658
1.48541
1.51415
1.54278
1.57126
1.59956
1.62764
1.65549
1.68305
1.71031
1.73723
1.76381
1.79003
1.81586
1.84127
1.86624
1.89073
1.91471
1.93816
1.96105
1.98334
2.00502
2.02606
2.04644
2.06612
2.08509
2.10332
2.12079
2.13748
2.15338
2.16846
2.18272
2.19612
2.20866
2.22033
2.23111
2.24099
2.24996
2.25802
2.26517
2.27139
2.27669
2.28108
2.28452
2.28699
2.28838
2.28893
2.2887
2.28749
2.28538
2.28237
2.27847
2.27371
2.26809
2.26163
2.25435
2.24626
2.2374
2.22776
2.21739
2.2063
2.19452
2.18206
2.16897
2.15526
2.14097
2.12611
2.11073
2.09485
2.07849
2.06169
2.04448
2.0269
2.00897
1.99077
1.97239
1.95407
1.93575
1.9173
1.89871
1.87999
1.86119
1.84232
1.82343
1.80452
1.78564
1.7668
1.74801
1.7293
1.71062
1.69208
1.67243
1.64056
0.00964243
0.0281935
0.0381828
0.0454487
0.0517626
0.0577829
0.063847
0.0701451
0.0767736
0.08376
0.0910852
0.0987034
0.10656
0.114602
0.122786
0.131078
0.139456
0.147904
0.156418
0.164999
0.173656
0.182408
0.191278
0.200302
0.209518
0.218977
0.228727
0.238824
0.249321
0.26028
0.271763
0.283841
0.29658
0.310033
0.324214
0.339082
0.354608
0.370784
0.387591
0.405008
0.422981
0.441436
0.4602
0.479183
0.49847
0.518134
0.538205
0.558704
0.579637
0.601008
0.622815
0.645061
0.667746
0.690871
0.714436
0.738442
0.76289
0.78778
0.813111
0.838883
0.865095
0.891742
0.918824
0.946334
0.974268
1.00262
1.03138
1.06055
1.09011
1.12005
1.15036
1.18103
1.21204
1.24337
1.27502
1.30696
1.33917
1.37163
1.40433
1.43722
1.4703
1.50354
1.53691
1.57037
1.60391
1.63749
1.67108
1.70465
1.73817
1.7716
1.80491
1.83807
1.87103
1.90378
1.93626
1.96846
2.00033
2.03185
2.06298
2.09369
2.12394
2.1537
2.18292
2.21159
2.23965
2.26708
2.29384
2.3199
2.34523
2.3698
2.39357
2.41653
2.43863
2.45986
2.48018
2.49959
2.51804
2.53553
2.55203
2.56753
2.582
2.59543
2.60782
2.61913
2.62938
2.63854
2.64662
2.65361
2.65951
2.66432
2.66802
2.67058
2.6719
2.67226
2.6716
2.66983
2.667
2.66312
2.65819
2.65225
2.6453
2.63738
2.62849
2.61866
2.60792
2.59628
2.58379
2.57045
2.55631
2.5414
2.52573
2.50936
2.4923
2.4746
2.45629
2.43739
2.41795
2.39801
2.37759
2.35674
2.3355
2.31394
2.29215
2.27026
2.24828
2.22615
2.20387
2.18146
2.15896
2.13641
2.11385
2.09131
2.06884
2.04647
2.02428
2.00233
1.98069
1.95952
1.93774
1.9084
0.0133817
0.0358138
0.0475691
0.0560265
0.0632706
0.0700599
0.0767766
0.0836355
0.0907535
0.0981804
0.10592
0.113948
0.122229
0.130723
0.139398
0.148231
0.157208
0.166325
0.175587
0.185006
0.194603
0.204407
0.214455
0.224789
0.235458
0.246515
0.25801
0.26999
0.282495
0.295558
0.309204
0.323452
0.338316
0.3538
0.369901
0.386613
0.403931
0.421855
0.440375
0.459469
0.479109
0.499244
0.519828
0.540833
0.562266
0.584139
0.606468
0.629264
0.652536
0.676291
0.700533
0.725266
0.750493
0.776217
0.80244
0.829164
0.856391
0.884122
0.912357
0.941097
0.97034
1.00008
1.03033
1.06107
1.0923
1.12401
1.1562
1.18886
1.22198
1.25554
1.28954
1.32396
1.35878
1.39399
1.42957
1.46549
1.50174
1.5383
1.57512
1.6122
1.64951
1.687
1.72466
1.76245
1.80034
1.83829
1.87627
1.91424
1.95216
1.99
2.02773
2.06529
2.10265
2.13978
2.17663
2.21316
2.24933
2.28511
2.32044
2.35529
2.38961
2.42337
2.45652
2.48902
2.52083
2.55191
2.58222
2.61173
2.64039
2.66818
2.69504
2.72097
2.74591
2.76985
2.79275
2.81458
2.83532
2.85495
2.87345
2.89079
2.90695
2.92192
2.93568
2.94823
2.95954
2.96961
2.97844
2.98602
2.99236
2.99745
3.00127
3.00378
3.00493
3.005
3.00383
3.00143
2.99782
2.99301
2.98703
2.9799
2.97163
2.96225
2.95178
2.94026
2.9277
2.91414
2.89961
2.88413
2.86776
2.85051
2.83243
2.81355
2.79391
2.77355
2.7525
2.73082
2.70852
2.68567
2.66229
2.63844
2.61416
2.58952
2.56459
2.53948
2.51421
2.48877
2.46316
2.43743
2.41162
2.38576
2.35991
2.33412
2.30845
2.28297
2.25777
2.23298
2.20873
2.18522
2.16151
2.13278
0.0169675
0.0427646
0.0561124
0.0656591
0.0737435
0.081209
0.0884804
0.0957979
0.103301
0.111061
0.119107
0.127435
0.136027
0.144862
0.153918
0.163181
0.172645
0.182314
0.192199
0.20232
0.212702
0.22338
0.234392
0.245782
0.257594
0.269876
0.28267
0.296012
0.30993
0.324444
0.339562
0.355288
0.371622
0.388558
0.406094
0.424225
0.442951
0.462271
0.482179
0.502667
0.52372
0.54532
0.567445
0.590084
0.613232
0.63689
0.661064
0.685761
0.710989
0.736753
0.763062
0.78992
0.817334
0.845306
0.873842
0.902946
0.932619
0.962866
0.993687
1.02508
1.05706
1.08961
1.12273
1.15642
1.19068
1.2255
1.26088
1.2968
1.33325
1.37022
1.40771
1.44568
1.48414
1.52304
1.56239
1.60215
1.64229
1.6828
1.72364
1.76479
1.80621
1.84786
1.88972
1.93175
1.97391
2.01616
2.05846
2.10076
2.14304
2.18523
2.22731
2.26922
2.31093
2.35237
2.39351
2.4343
2.47469
2.51463
2.55407
2.59296
2.63126
2.66892
2.7059
2.74213
2.77759
2.81222
2.84598
2.87882
2.91071
2.9416
2.97146
3.00024
3.02792
3.05445
3.0798
3.10396
3.12687
3.14853
3.1689
3.18797
3.20571
3.2221
3.23714
3.25079
3.26306
3.27394
3.28341
3.29149
3.29816
3.30342
3.30728
3.30965
3.31058
3.31024
3.30851
3.30542
3.30097
3.29519
3.28811
3.27974
3.27012
3.25926
3.2472
3.23396
3.21959
3.20411
3.18756
3.16997
3.15139
3.13185
3.1114
3.09007
3.06791
3.04496
3.02127
2.99688
2.97183
2.94617
2.91995
2.89321
2.86601
2.83841
2.81048
2.78231
2.75393
2.72535
2.69661
2.66773
2.63878
2.6098
2.58085
2.552
2.52333
2.49492
2.46691
2.43945
2.41272
2.38693
2.36123
2.33187
0.0202656
0.0489185
0.0636571
0.0741683
0.0829978
0.0910576
0.0988073
0.10651
0.114323
0.122341
0.130611
0.139153
0.147965
0.157042
0.166374
0.175957
0.185793
0.19589
0.206264
0.216939
0.227942
0.239308
0.251073
0.263276
0.275957
0.289153
0.302899
0.317222
0.332144
0.347678
0.36383
0.380602
0.397991
0.415995
0.434608
0.45383
0.473658
0.494093
0.515133
0.536776
0.559016
0.581848
0.605262
0.629255
0.653823
0.678967
0.704692
0.731002
0.757905
0.785408
0.813519
0.842246
0.871595
0.901573
0.932186
0.963439
0.995339
1.02789
1.06109
1.09495
1.12947
1.16465
1.20048
1.23697
1.27411
1.3119
1.35033
1.38939
1.42907
1.46936
1.51024
1.55169
1.5937
1.63625
1.67931
1.72286
1.76686
1.8113
1.85613
1.90133
1.94685
1.99266
2.03872
2.08499
2.13143
2.17799
2.22462
2.27127
2.31791
2.36447
2.41092
2.45719
2.50323
2.549
2.59442
2.63946
2.68405
2.72814
2.77168
2.8146
2.85685
2.89839
2.93916
2.9791
3.01817
3.05631
3.09347
3.12961
3.16467
3.19862
3.23141
3.26299
3.29333
3.32239
3.35014
3.37654
3.40156
3.42516
3.44734
3.46806
3.48729
3.50502
3.52124
3.53593
3.54907
3.56066
3.5707
3.57918
3.5861
3.59147
3.59528
3.59744
3.59809
3.59726
3.5949
3.59104
3.5857
3.5789
3.57066
3.56101
3.54998
3.53761
3.52393
3.50896
3.49275
3.47534
3.45676
3.43706
3.41628
3.39446
3.37165
3.3479
3.32325
3.29776
3.27146
3.24442
3.21667
3.18827
3.15927
3.12972
3.09967
3.06919
3.03835
3.00722
2.97584
2.94425
2.91248
2.88059
2.84862
2.81664
2.78471
2.75293
2.72136
2.69015
2.65941
2.62936
2.60019
2.57208
2.54426
2.51346
0.02318
0.054194
0.0701059
0.0814393
0.0909074
0.0994762
0.107632
0.115656
0.12372
0.131936
0.140369
0.149056
0.158014
0.167252
0.17677
0.186576
0.196676
0.207086
0.217822
0.22891
0.240378
0.252257
0.264581
0.277383
0.290697
0.304554
0.318981
0.334001
0.349631
0.365883
0.382764
0.400278
0.418426
0.437205
0.456616
0.476658
0.497331
0.518637
0.540578
0.563154
0.586367
0.610216
0.634701
0.659823
0.685583
0.711983
0.73903
0.766731
0.795092
0.824124
0.853835
0.884235
0.915332
0.947136
0.979654
1.01289
1.04686
1.08157
1.11702
1.15321
1.19015
1.22784
1.26629
1.30548
1.34542
1.3861
1.42752
1.46967
1.51252
1.55608
1.60033
1.64524
1.69079
1.73697
1.78374
1.83108
1.87895
1.92732
1.97616
2.02543
2.07508
2.12508
2.17537
2.22591
2.27665
2.32755
2.37854
2.42957
2.48059
2.53155
2.58238
2.63302
2.68342
2.7335
2.78322
2.83251
2.8813
2.92953
2.97714
3.02407
3.07026
3.11565
3.16018
3.20379
3.24643
3.28803
3.32855
3.36792
3.40611
3.44305
3.4787
3.51302
3.54595
3.57747
3.60753
3.63609
3.66313
3.68861
3.7125
3.73477
3.75542
3.7744
3.79171
3.80734
3.82126
3.83348
3.84399
3.85279
3.85988
3.86526
3.86894
3.87084
3.87111
3.86972
3.86667
3.86198
3.85568
3.84779
3.83834
3.82737
3.8149
3.80098
3.78564
3.76891
3.75085
3.73149
3.71088
3.68906
3.66609
3.642
3.61686
3.59071
3.56361
3.5356
3.50675
3.4771
3.4467
3.41562
3.38391
3.35161
3.31879
3.28551
3.25184
3.21784
3.18356
3.14906
3.11438
3.07957
3.04469
3.00982
2.97502
2.9404
2.90605
2.8721
2.83873
2.80613
2.77451
2.74405
2.71399
2.68159
0.0256518
0.058559
0.0754201
0.0874237
0.097415
0.106402
0.11489
0.123172
0.131433
0.139796
0.148341
0.15712
0.166165
0.175496
0.185127
0.195071
0.205343
0.215959
0.226941
0.238312
0.250101
0.262335
0.275044
0.288258
0.302006
0.316313
0.331202
0.346693
0.362802
0.379542
0.396921
0.414945
0.433619
0.452945
0.472928
0.493568
0.51487
0.536839
0.559478
0.582792
0.606786
0.631466
0.656835
0.682901
0.709667
0.737141
0.765331
0.794246
0.823897
0.854294
0.885448
0.917372
0.950077
0.983573
1.01787
1.05298
1.08891
1.12568
1.16328
1.20172
1.24101
1.28115
1.32215
1.364
1.4067
1.45025
1.49463
1.53984
1.58587
1.63269
1.6803
1.72867
1.77778
1.8276
1.87811
1.92926
1.98102
2.03336
2.08623
2.1396
2.1934
2.24761
2.30215
2.35699
2.41206
2.4673
2.52266
2.57808
2.63349
2.68883
2.74403
2.79903
2.85376
2.90815
2.96212
3.01562
3.06856
3.12089
3.17252
3.2234
3.27346
3.32263
3.37085
3.41805
3.46417
3.50914
3.55292
3.59544
3.63664
3.67647
3.71488
3.75182
3.78724
3.82109
3.85335
3.88396
3.9129
3.94012
3.96561
3.98933
4.01126
4.03138
4.04967
4.06612
4.08071
4.09345
4.10433
4.11334
4.12049
4.12579
4.12925
4.13081
4.13061
4.12859
4.12477
4.11918
4.11186
4.10283
4.09212
4.07978
4.06584
4.05034
4.03332
4.01482
3.9949
3.97359
3.95095
3.92703
3.90188
3.87556
3.84812
3.81961
3.7901
3.75964
3.72829
3.6961
3.66313
3.62945
3.5951
3.56014
3.52464
3.48865
3.45224
3.41548
3.37843
3.34113
3.30365
3.26604
3.22838
3.19072
3.15317
3.11581
3.07877
3.04219
3.00624
2.97114
2.93709
2.90424
2.87189
2.83775
0.0276494
0.0620186
0.0796111
0.0921314
0.102527
0.111838
0.120582
0.12906
0.137464
0.145927
0.154539
0.163364
0.172445
0.181813
0.191492
0.201502
0.21186
0.22259
0.233714
0.245254
0.257236
0.269688
0.282634
0.296102
0.310115
0.324697
0.339868
0.355647
0.372049
0.389089
0.406777
0.425125
0.444139
0.463827
0.484196
0.505253
0.527006
0.549462
0.57263
0.596517
0.621134
0.64649
0.672593
0.699453
0.72708
0.755486
0.784681
0.814679
0.845492
0.877135
0.909622
0.942967
0.977183
1.01229
1.04828
1.0852
1.12303
1.16179
1.2015
1.24216
1.28377
1.32634
1.36988
1.41438
1.45984
1.50625
1.55361
1.6019
1.65112
1.70123
1.75224
1.8041
1.85679
1.91028
1.96454
2.01953
2.07521
2.13154
2.18846
2.24594
2.30391
2.36232
2.42112
2.48024
2.53961
2.59919
2.65889
2.71865
2.7784
2.83807
2.89758
2.95686
3.01583
3.07443
3.13256
3.19016
3.24715
3.30344
3.35898
3.41367
3.46746
3.52027
3.57202
3.62265
3.6721
3.72029
3.76716
3.81265
3.85669
3.89924
3.94023
3.97961
4.01734
4.05336
4.08764
4.12013
4.15079
4.17959
4.20651
4.23151
4.25456
4.27566
4.29477
4.3119
4.32702
4.34014
4.35124
4.36034
4.36744
4.37255
4.37567
4.37682
4.37604
4.3733
4.36864
4.36209
4.35368
4.34346
4.33146
4.31771
4.30227
4.28517
4.26646
4.24619
4.22442
4.20118
4.17654
4.15056
4.12328
4.09477
4.06509
4.03429
4.00245
3.96961
3.93585
3.90122
3.86578
3.8296
3.79273
3.75523
3.71716
3.67859
3.63958
3.60019
3.5605
3.52055
3.48041
3.44015
3.39983
3.35953
3.31936
3.2794
3.23979
3.20068
3.16224
3.1247
3.08824
3.05302
3.01834
2.98227
0.0291684
0.0646109
0.0827298
0.0956198
0.106303
0.115843
0.124765
0.133374
0.141867
0.150382
0.159018
0.167846
0.176918
0.186275
0.195948
0.205963
0.216344
0.227113
0.238291
0.249902
0.261969
0.274518
0.287573
0.301156
0.31529
0.329998
0.345299
0.361211
0.377753
0.394939
0.412785
0.431305
0.45051
0.470412
0.491024
0.512356
0.53442
0.557229
0.580795
0.60513
0.630247
0.65616
0.682883
0.710432
0.738819
0.768061
0.798173
0.82917
0.861072
0.893894
0.927654
0.96237
0.998057
1.03473
1.07241
1.1111
1.15083
1.1916
1.23342
1.27631
1.32027
1.3653
1.41141
1.45859
1.50685
1.55618
1.60656
1.65798
1.71044
1.76389
1.81833
1.87372
1.93003
1.98723
2.04528
2.10412
2.16373
2.22405
2.28502
2.34658
2.40869
2.47127
2.53427
2.5976
2.66122
2.72503
2.78897
2.85295
2.91692
2.98077
3.04444
3.10784
3.17089
3.23351
3.29561
3.35711
3.41792
3.47797
3.53718
3.59546
3.65274
3.70893
3.76397
3.81779
3.8703
3.92144
3.97114
4.01934
4.06596
4.11096
4.15427
4.19584
4.23562
4.27355
4.3096
4.34372
4.37587
4.40602
4.43413
4.46019
4.48416
4.50602
4.52576
4.54337
4.55884
4.57216
4.58334
4.59237
4.59927
4.60406
4.60673
4.60733
4.6059
4.60235
4.59676
4.58917
4.57963
4.56817
4.55483
4.53966
4.52271
4.50401
4.48363
4.46161
4.43802
4.4129
4.38631
4.35833
4.32899
4.29838
4.26655
4.23357
4.19951
4.16442
4.12837
4.09143
4.05366
4.01512
3.97588
3.93599
3.89551
3.85452
3.81307
3.77123
3.72907
3.68665
3.64404
3.60129
3.5585
3.51573
3.47309
3.43069
3.38866
3.34715
3.30635
3.26646
3.22767
3.19012
3.15315
3.11511
0.030228
0.0664036
0.0848579
0.0979809
0.108841
0.118519
0.127541
0.136214
0.14474
0.15326
0.161878
0.170672
0.179702
0.189011
0.198636
0.208605
0.218945
0.229679
0.240831
0.252423
0.264478
0.27702
0.290072
0.303655
0.317793
0.332507
0.347817
0.363741
0.3803
0.397513
0.4154
0.433977
0.453263
0.473274
0.494026
0.515534
0.537817
0.560892
0.584775
0.609483
0.635031
0.661438
0.688723
0.716908
0.746011
0.776052
0.807052
0.839032
0.872013
0.906016
0.941062
0.977169
1.01436
1.05265
1.09205
1.13259
1.17427
1.21712
1.26114
1.30634
1.35273
1.40031
1.44908
1.49905
1.5502
1.60253
1.65602
1.71066
1.76642
1.82328
1.88122
1.94019
2.00016
2.06108
2.12292
2.18563
2.24914
2.3134
2.37836
2.44395
2.5101
2.57674
2.64381
2.71122
2.77889
2.84676
2.91473
2.98273
3.05067
3.11846
3.18602
3.25326
3.32009
3.38642
3.45216
3.51723
3.58154
3.645
3.70752
3.76902
3.82941
3.88863
3.94658
4.0032
4.0584
4.11211
4.16427
4.2148
4.26363
4.31071
4.35598
4.39938
4.44085
4.48035
4.51784
4.55326
4.58658
4.61776
4.64678
4.67361
4.69822
4.72059
4.74071
4.75857
4.77416
4.78747
4.79852
4.80731
4.81385
4.81815
4.82025
4.82017
4.81799
4.81351
4.80692
4.79824
4.78751
4.77478
4.76009
4.74349
4.72503
4.70476
4.68274
4.65903
4.63368
4.60675
4.57831
4.54842
4.51715
4.48456
4.45072
4.41569
4.37955
4.34237
4.30421
4.26513
4.22521
4.18451
4.14308
4.101
4.05833
4.01512
3.97145
3.92737
3.88297
3.83829
3.79342
3.74841
3.70335
3.65832
3.61343
3.56878
3.52452
3.48078
3.43776
3.39566
3.35465
3.31487
3.27571
3.23575
0.0308707
0.0674767
0.0860949
0.0993263
0.110262
0.119989
0.129035
0.13771
0.146219
0.154705
0.163273
0.172002
0.18095
0.190168
0.199696
0.209566
0.219807
0.230444
0.241499
0.252997
0.264959
0.277409
0.290368
0.303862
0.317912
0.332543
0.34778
0.363641
0.380145
0.397314
0.415171
0.433738
0.453037
0.473091
0.493922
0.515555
0.538025
0.561347
0.585538
0.610619
0.636607
0.663514
0.691373
0.720215
0.750067
0.780955
0.812904
0.845939
0.880086
0.915369
0.951811
0.989433
1.02826
1.0683
1.10958
1.15212
1.19592
1.24101
1.2874
1.33508
1.38408
1.43438
1.48598
1.53889
1.59309
1.64856
1.70529
1.76326
1.82243
1.88278
1.94427
2.00686
2.0705
2.13515
2.20075
2.26725
2.33459
2.40269
2.4715
2.54094
2.61095
2.68143
2.75232
2.82353
2.89497
2.96657
3.03824
3.10988
3.1814
3.25272
3.32375
3.39438
3.46453
3.53411
3.60302
3.67116
3.73846
3.80481
3.87013
3.93433
3.99733
4.05904
4.11938
4.17827
4.23564
4.29141
4.34551
4.39786
4.44841
4.49708
4.54383
4.58859
4.6313
4.67192
4.71041
4.74672
4.78081
4.81264
4.8422
4.86944
4.89435
4.91691
4.93711
4.95493
4.97038
4.98345
4.99415
5.00248
5.00846
5.01212
5.01348
5.01265
5.00954
5.00407
4.9964
4.98657
4.97462
4.9606
4.94456
4.92655
4.90662
4.88484
4.86125
4.83592
4.80891
4.78029
4.75013
4.71848
4.68542
4.65101
4.61534
4.57846
4.54045
4.50138
4.46132
4.42034
4.3785
4.33588
4.29252
4.2485
4.20388
4.15872
4.11308
4.06704
4.02066
3.97399
3.92713
3.88012
3.83306
3.78603
3.73913
3.69247
3.6462
3.60045
3.55542
3.51128
3.46822
3.42636
3.38514
3.34341
0.0310766
0.067856
0.0865106
0.0997513
0.110676
0.12038
0.129391
0.138017
0.146461
0.154869
0.163348
0.171985
0.180844
0.189968
0.199397
0.209164
0.219296
0.229821
0.240761
0.25214
0.263982
0.276308
0.289143
0.30251
0.316434
0.33094
0.34605
0.361789
0.378184
0.395264
0.41306
0.4316
0.450911
0.471023
0.491963
0.513758
0.536434
0.560021
0.584545
0.610031
0.636511
0.664001
0.692546
0.722184
0.752943
0.784852
0.817941
0.852242
0.887783
0.92459
0.962687
1.00209
1.04283
1.08492
1.12837
1.17321
1.21943
1.26707
1.31611
1.36657
1.41845
1.47173
1.52642
1.5825
1.63996
1.69876
1.75889
1.82032
1.883
1.9469
2.01198
2.07818
2.14545
2.21374
2.28298
2.35312
2.42407
2.49578
2.56816
2.64114
2.71464
2.78857
2.86286
2.93741
3.01214
3.08695
3.16176
3.23648
3.311
3.38523
3.45909
3.53247
3.60528
3.67742
3.7488
3.81933
3.88891
3.95745
4.02486
4.09106
4.15594
4.21944
4.28147
4.34196
4.40081
4.45796
4.51334
4.56687
4.6185
4.66815
4.71577
4.7613
4.80468
4.84588
4.88484
4.92153
4.9559
4.98792
5.01757
5.04481
5.06963
5.09201
5.11193
5.1294
5.14441
5.15695
5.16704
5.17469
5.17992
5.18275
5.18323
5.18154
5.17737
5.17081
5.16201
5.151
5.13782
5.12252
5.10516
5.08578
5.06446
5.04124
5.01619
4.98937
4.96086
4.9307
4.89899
4.86577
4.83113
4.79514
4.75786
4.71938
4.67976
4.63907
4.59739
4.55479
4.51133
4.46707
4.42209
4.37644
4.33018
4.28339
4.23611
4.18842
4.14038
4.09205
4.04351
3.99483
3.94607
3.89735
3.84874
3.80036
3.75235
3.70486
3.65806
3.61212
3.56721
3.52348
3.4804
3.4371
0.0310125
0.0677767
0.0863669
0.0995531
0.110422
0.120063
0.129
0.137544
0.145898
0.154207
0.162577
0.171089
0.179803
0.188771
0.19803
0.20762
0.217569
0.227905
0.238653
0.249838
0.261485
0.273617
0.286262
0.299445
0.313195
0.327541
0.342514
0.358147
0.374475
0.39153
0.409348
0.427963
0.447407
0.467714
0.488916
0.511049
0.534148
0.55826
0.583405
0.609607
0.636882
0.665272
0.694838
0.725614
0.757638
0.790948
0.825578
0.861566
0.898952
0.937751
0.977984
1.01967
1.06282
1.10746
1.15358
1.20121
1.25034
1.30098
1.35314
1.40679
1.46195
1.51859
1.57668
1.63622
1.69717
1.7595
1.82318
1.88815
1.95438
2.02181
2.09039
2.16007
2.23078
2.30246
2.37504
2.44845
2.52261
2.59745
2.67289
2.74884
2.82523
2.90196
2.97895
3.05612
3.13336
3.2106
3.28773
3.36467
3.44131
3.51758
3.59336
3.66857
3.74311
3.81688
3.8898
3.96177
4.03269
4.10249
4.17106
4.23832
4.30418
4.36857
4.4314
4.49259
4.55208
4.60977
4.66561
4.71952
4.77144
4.82131
4.86908
4.91468
4.95806
4.99918
5.038
5.07447
5.10856
5.14023
5.16946
5.19623
5.22051
5.24229
5.26156
5.27831
5.29255
5.30428
5.3135
5.32024
5.3245
5.32633
5.32585
5.32311
5.31777
5.31009
5.30013
5.28792
5.27353
5.257
5.23838
5.21774
5.19513
5.17062
5.14427
5.11615
5.08632
5.05485
5.02182
4.98729
4.95134
4.91404
4.87546
4.83568
4.79477
4.7528
4.70985
4.66597
4.62124
4.57572
4.52948
4.48258
4.43506
4.38701
4.33847
4.28951
4.2402
4.19059
4.14076
4.09077
4.04069
3.99063
3.94066
3.89091
3.8415
3.79257
3.7443
3.69684
3.65036
3.60501
3.56032
3.51572
0.030805
0.0674443
0.085847
0.098876
0.109589
0.119069
0.127841
0.136214
0.144391
0.152517
0.160698
0.169015
0.177532
0.186302
0.195369
0.204767
0.214524
0.224668
0.235229
0.246232
0.257706
0.269682
0.282189
0.295262
0.308935
0.323244
0.338225
0.353915
0.370357
0.387589
0.405658
0.424615
0.444502
0.465351
0.487201
0.510087
0.534038
0.559052
0.585204
0.612564
0.6412
0.671164
0.702487
0.7352
0.769341
0.804943
0.842034
0.880638
0.920768
0.962455
1.00572
1.0506
1.09708
1.14514
1.1948
1.24605
1.29887
1.35327
1.40922
1.46671
1.5257
1.58617
1.64809
1.71141
1.77611
1.84212
1.9094
1.9779
2.04757
2.11833
2.19014
2.26293
2.33663
2.41117
2.48648
2.56248
2.6391
2.71626
2.79388
2.87188
2.95017
3.02868
3.10731
3.18598
3.26461
3.3431
3.42136
3.49931
3.57685
3.65389
3.73035
3.80613
3.88115
3.9553
4.02851
4.10067
4.17171
4.24154
4.31006
4.37721
4.44288
4.50701
4.56952
4.63034
4.68938
4.74658
4.80187
4.85519
4.90645
4.95563
5.00266
5.04748
5.09005
5.13032
5.16825
5.2038
5.23693
5.26762
5.29585
5.32158
5.34481
5.36551
5.38368
5.39931
5.41241
5.42299
5.43104
5.43658
5.43965
5.44028
5.43877
5.43473
5.42818
5.4193
5.40814
5.39475
5.37917
5.36146
5.34167
5.31988
5.29612
5.27048
5.24302
5.2138
5.18289
5.15036
5.11628
5.08073
5.04378
5.0055
4.96595
4.92523
4.88339
4.84051
4.79666
4.75191
4.70631
4.65994
4.61285
4.5651
4.51675
4.46786
4.41848
4.36868
4.31851
4.26803
4.21731
4.16642
4.11543
4.06442
4.01348
3.96272
3.91226
3.86225
3.81283
3.76417
3.71641
3.66973
3.6237
3.5781
0.0303867
0.0667443
0.0848589
0.0976544
0.108145
0.117407
0.125965
0.134129
0.142103
0.150031
0.158018
0.166147
0.174481
0.183073
0.191967
0.2012
0.210808
0.220822
0.231275
0.242199
0.25363
0.265607
0.278167
0.291351
0.305204
0.319778
0.335131
0.351297
0.368323
0.386257
0.405138
0.424983
0.445828
0.467767
0.490869
0.515196
0.54081
0.567796
0.596187
0.626033
0.657389
0.690302
0.7248
0.760912
0.798662
0.83807
0.879146
0.921896
0.966325
1.01243
1.06021
1.10961
1.16062
1.21324
1.26744
1.3232
1.3805
1.43929
1.49954
1.56121
1.62426
1.68864
1.75431
1.8212
1.88928
1.95849
2.02876
2.10004
2.17228
2.24541
2.31936
2.39408
2.46949