/*--------------------------------*- C++ -*----------------------------------*\
  =========                 |
  \\      /  F ield         | OpenFOAM: The Open Source CFD Toolbox
   \\    /   O peration     | Website:  https://openfoam.org
    \\  /    A nd           | Version:  11
     \\/     M anipulation  |
\*---------------------------------------------------------------------------*/
FoamFile
{
    format      ascii;
    class       volScalarField;
    location    "287";
    object      nut;
}
// * * * * * * * * * * * * * * * * * * * * * * * * * * * * * * * * * * * * * //

dimensions      [0 2 -1 0 0 0 0];

internalField   nonuniform List<scalar> 
12225
(
4.14969e-05
3.93414e-05
3.74842e-05
3.54319e-05
3.37853e-05
3.24192e-05
3.15114e-05
3.09108e-05
3.09171e-05
3.10971e-05
3.15675e-05
3.21125e-05
3.3146e-05
3.38006e-05
3.51028e-05
3.567e-05
3.75765e-05
3.56945e-05
0.000332329
0.000215222
0.000179281
0.00015768
0.000146209
0.000138213
0.000132759
0.00013163
0.000129529
0.000130045
0.000129063
0.000129424
0.000128672
0.000128542
0.000128089
0.0001274
0.000127392
0.000126522
0.000674967
0.000450837
0.000355785
0.000309833
0.000275296
0.000251094
0.000231722
0.00021727
0.000202702
0.000192112
0.000182641
0.00017521
0.000169394
0.000163694
0.00016032
0.000155594
0.000153828
0.000149935
0.000833618
0.000684899
0.000572001
0.000499957
0.000449475
0.000411943
0.000380795
0.000355992
0.000334031
0.00031478
0.000298352
0.000281725
0.000270333
0.000256103
0.000248238
0.000236221
0.000230459
0.00022055
0.000861255
0.000802526
0.00074214
0.000676567
0.000624015
0.000581363
0.000545887
0.000514551
0.000489538
0.000464436
0.000445881
0.000424095
0.000409966
0.000390847
0.000379938
0.000363171
0.000354561
0.000339655
0.00085498
0.000840347
0.000822209
0.000786486
0.000750874
0.000715893
0.000685773
0.000656132
0.000632561
0.000607528
0.000589014
0.000567272
0.000552311
0.000533142
0.000520832
0.000503815
0.000493399
0.000477638
0.000852908
0.000850685
0.00084424
0.000832828
0.000817416
0.000796998
0.000777892
0.00075674
0.000738907
0.000719157
0.000703546
0.000685642
0.000672146
0.000655961
0.000644349
0.000629603
0.000619592
0.000605282
0.000851923
0.000851813
0.000850173
0.000847394
0.000841454
0.000833728
0.000824898
0.000813418
0.000802811
0.000790478
0.000779723
0.000767554
0.000757441
0.000745811
0.000736571
0.00072558
0.000717214
0.000706132
0.000851751
0.000851542
0.000851035
0.000850338
0.000848881
0.000846168
0.000843035
0.000838306
0.000833404
0.000827365
0.000821222
0.000814781
0.00080842
0.000801542
0.000795262
0.000788448
0.00078221
0.000775319
0.000851769
0.000851389
0.000851046
0.000850633
0.000850248
0.000849368
0.000848405
0.000846781
0.000844957
0.000842532
0.000839926
0.000836804
0.0008338
0.000830162
0.000826981
0.000822943
0.00081992
0.000815328
0.000851787
0.000851359
0.000851012
0.000850613
0.000850329
0.000849905
0.000849526
0.000848929
0.000848303
0.000847394
0.000846467
0.000845179
0.000843993
0.000842356
0.000841001
0.00083904
0.000837649
0.000835375
0.000851789
0.000851359
0.000850995
0.000850605
0.000850291
0.000849938
0.000849646
0.00084928
0.000848955
0.000848505
0.000848099
0.000847509
0.000846999
0.000846246
0.000845644
0.000844724
0.000844062
0.000842981
0.000851786
0.000851363
0.000850985
0.000850604
0.000850269
0.000849926
0.00084963
0.000849313
0.000849042
0.000848729
0.000848462
0.000848127
0.000847844
0.000847467
0.000847157
0.000846727
0.000846388
0.000845904
0.000851783
0.000851364
0.000850978
0.000850602
0.000850256
0.000849916
0.000849607
0.0008493
0.000849022
0.000848741
0.000848488
0.000848224
0.000847989
0.000847735
0.000847508
0.000847258
0.000847033
0.000846783
0.000851781
0.000851364
0.000850972
0.000850598
0.000850246
0.000849908
0.000849591
0.000849286
0.000849
0.000848723
0.000848463
0.000848211
0.000847975
0.000847745
0.000847527
0.000847316
0.000847114
0.000846918
0.00085178
0.000851363
0.000850969
0.000850594
0.000850239
0.000849901
0.00084958
0.000849274
0.000848984
0.000848707
0.000848443
0.000848191
0.000847951
0.000847721
0.000847502
0.000847292
0.000847092
0.0008469
0.000851779
0.000851362
0.000850967
0.000850591
0.000850234
0.000849894
0.000849572
0.000849265
0.000848973
0.000848694
0.000848428
0.000848174
0.000847932
0.000847701
0.00084748
0.000847268
0.000847066
0.000846873
0.000851779
0.000851362
0.000850965
0.000850588
0.00085023
0.00084989
0.000849567
0.000849258
0.000848965
0.000848685
0.000848418
0.000848163
0.000847919
0.000847686
0.000847464
0.000847251
0.000847047
0.000846853
0.000851779
0.000851362
0.000850965
0.000850588
0.000850229
0.000849889
0.000849565
0.000849256
0.000848962
0.000848681
0.000848413
0.000848157
0.000847913
0.000847679
0.000847456
0.000847242
0.000847037
0.000846842
0.000851779
0.000851362
0.000850965
0.000850589
0.000850231
0.000849891
0.000849567
0.000849259
0.000848965
0.000848684
0.000848416
0.000848161
0.000847916
0.000847683
0.000847459
0.000847245
0.000847039
0.000846843
0.000851779
0.000851363
0.000850967
0.000850592
0.000850235
0.000849896
0.000849573
0.000849266
0.000848972
0.000848693
0.000848423
0.000848168
0.000847918
0.000847682
0.00084745
0.00084723
0.000847011
0.000846805
0.000851778
0.000851366
0.000850968
0.000850599
0.00085024
0.000849907
0.00084958
0.000849274
0.000848964
0.000848671
0.000848364
0.000848071
0.000847755
0.000847454
0.000847122
0.00084681
0.000846455
0.000846134
0.000851777
0.000851374
0.000850971
0.000850615
0.00085024
0.000849889
0.000849478
0.000849053
0.000848529
0.000847977
0.0008473
0.000846603
0.000845765
0.000844938
0.000843953
0.000843027
0.000841915
0.000840937
0.000851802
0.00085141
0.00085097
0.000850549
0.00084986
0.000848967
0.000847607
0.000845979
0.000843902
0.000841634
0.000838953
0.000836212
0.000833114
0.00083011
0.000826759
0.000823676
0.000820179
0.000817172
0.000852138
0.000851403
0.000850234
0.000848252
0.000844472
0.000839355
0.000832711
0.000825762
0.000817912
0.000809998
0.000801612
0.000793623
0.000785326
0.0007777
0.000769736
0.000762692
0.000755114
0.000748785
0.000854142
0.000847718
0.000840125
0.000827122
0.000808707
0.000789646
0.00076997
0.000751414
0.0007333
0.00071689
0.000700927
0.000686773
0.000672821
0.000660661
0.000648368
0.000637929
0.000626941
0.000618007
0.00085497
0.000818336
0.000776229
0.000726634
0.000684937
0.000649855
0.000618457
0.000592018
0.000568376
0.000548305
0.000529681
0.000513985
0.00049874
0.000486007
0.000473191
0.000462697
0.00045161
0.000442792
0.000807487
0.000666879
0.000570551
0.000509853
0.000465647
0.000431192
0.00040413
0.000382497
0.000364189
0.000349062
0.000335935
0.000325071
0.000314473
0.00030624
0.000297954
0.00029136
0.000284272
0.000278923
0.000501854
0.000348404
0.00029269
0.000259174
0.000236321
0.000221176
0.000211542
0.000204014
0.000198479
0.000195058
0.000192217
0.000190366
0.000188581
0.000187438
0.000186163
0.000185473
0.000184553
0.000184141
7.27285e-05
7.02231e-05
6.79539e-05
6.56136e-05
6.33827e-05
6.12765e-05
5.94929e-05
5.79573e-05
5.67103e-05
5.5703e-05
5.49775e-05
5.44185e-05
5.41086e-05
5.38874e-05
5.38766e-05
5.39623e-05
5.40719e-05
5.43225e-05
1.68132e-07
4.50762e-06
8.43668e-06
1.18825e-05
1.51337e-05
1.87676e-05
2.29648e-05
2.79541e-05
3.389e-05
4.07465e-05
4.8413e-05
5.66918e-05
6.54213e-05
7.44211e-05
8.35778e-05
9.27599e-05
0.000101895
0.000110887
0.000119687
0.000128225
0.000136465
0.000144362
0.000151866
0.000158937
0.000165466
0.000171354
0.000176341
0.000180166
0.000182706
0.000183624
0.000179607
0.000172275
0.000159298
3.29652e-05
3.31149e-05
3.44073e-05
3.60605e-05
3.8154e-05
3.9232e-05
4.17983e-05
4.50326e-05
4.72745e-05
4.79613e-05
4.93845e-05
5.02513e-05
5.1443e-05
5.24932e-05
5.36351e-05
5.47309e-05
5.5849e-05
5.69528e-05
5.80594e-05
5.91602e-05
6.02589e-05
6.1354e-05
6.24459e-05
6.35345e-05
6.46195e-05
6.57013e-05
6.67792e-05
6.78535e-05
6.89237e-05
6.99898e-05
7.10513e-05
7.21081e-05
7.31597e-05
7.42059e-05
7.52461e-05
7.62801e-05
7.73074e-05
7.83274e-05
7.93398e-05
8.0344e-05
8.13396e-05
8.23259e-05
8.33025e-05
8.42687e-05
8.52241e-05
8.61681e-05
8.71002e-05
8.80196e-05
8.8926e-05
8.98186e-05
9.0697e-05
9.15604e-05
9.24083e-05
9.324e-05
9.40549e-05
9.48522e-05
9.56313e-05
9.63909e-05
9.71303e-05
9.78483e-05
9.85437e-05
9.92154e-05
9.98628e-05
0.000100486
0.000101087
0.000101672
0.000102232
0.000102772
0.000103288
0.000103783
0.000104255
0.000104704
0.00010513
0.000105533
0.000105911
0.000106266
0.000106596
0.000106902
0.000107183
0.00010744
0.000107671
0.000107878
0.000108059
0.000108215
0.000108346
0.000108451
0.000108531
0.000108585
0.000108614
0.000108618
0.000108596
0.00010855
0.000108478
0.00010838
0.000108258
0.000108114
0.000107947
0.000107752
0.000107531
0.000107284
0.000107019
0.000106733
0.00010642
0.000106086
0.00010573
0.000105352
0.000104953
0.000104533
0.000104093
0.000103634
0.000103155
0.000102658
0.000102143
0.00010161
0.00010106
0.000100493
9.99107e-05
9.93132e-05
9.8701e-05
9.8075e-05
9.74357e-05
9.67839e-05
9.61201e-05
9.54452e-05
9.47597e-05
9.40646e-05
9.33606e-05
9.26494e-05
9.1934e-05
9.1234e-05
9.06951e-05
9.02827e-05
8.98786e-05
8.94717e-05
8.90606e-05
8.86458e-05
8.82274e-05
8.78056e-05
8.73805e-05
8.69517e-05
8.6518e-05
8.6077e-05
8.56235e-05
8.51468e-05
8.46177e-05
8.39755e-05
8.20549e-05
8.66468e-07
2.4307e-05
5.54763e-05
7.72535e-05
9.10793e-05
0.000100204
0.000107454
0.000114475
0.000122093
0.000130587
0.000139934
0.000149968
0.00016048
0.000171267
0.000182158
0.000193007
0.000203697
0.000214123
0.000224189
0.000233794
0.000242825
0.000251137
0.000258526
0.000264711
0.000269288
0.000271726
0.000271333
0.00026734
0.000258756
0.000244748
0.000224895
0.00020015
0.00017215
0.000143571
0.000150372
0.000161077
0.000175193
0.000189454
0.000203356
0.000218755
0.000233776
0.000246286
0.000264562
0.000271578
0.000278033
0.000284887
0.000292482
0.000300206
0.000308215
0.000316315
0.000324548
0.000332864
0.000341273
0.000349761
0.00035833
0.000366977
0.000375703
0.00038451
0.000393397
0.000402365
0.000411417
0.000420552
0.000429772
0.000439076
0.000448464
0.000457935
0.000467488
0.000477122
0.000486834
0.000496623
0.000506485
0.000516418
0.000526417
0.000536478
0.000546597
0.00055677
0.00056699
0.000577253
0.000587554
0.000597885
0.000608242
0.000618617
0.000629006
0.000639401
0.000649797
0.000660188
0.000670567
0.00068093
0.000691271
0.000701585
0.000711865
0.000722104
0.000732288
0.000742395
0.000752393
0.000762222
0.000771772
0.000780862
0.000789202
0.000797521
0.000805682
0.000813716
0.000821608
0.000829358
0.000836958
0.000844403
0.000851686
0.000858804
0.00086575
0.00087252
0.00087911
0.000885513
0.000891727
0.000897747
0.000903569
0.000909188
0.000914602
0.000919807
0.000924801
0.000929579
0.00093414
0.000938481
0.0009426
0.000946495
0.000950163
0.000953605
0.000956822
0.000959812
0.000962564
0.000965101
0.000967477
0.000969541
0.000971234
0.000972741
0.000974171
0.000975278
0.000976164
0.00097682
0.000977247
0.000977449
0.000977426
0.000977183
0.000976723
0.000976049
0.000975166
0.000974076
0.000972784
0.000971293
0.000969609
0.000967736
0.000965679
0.000963444
0.000961035
0.000958458
0.00095572
0.000952824
0.000949777
0.000946583
0.000943246
0.000939766
0.000936133
0.000932286
0.000927905
0.000921779
0.000914405
0.000906619
0.000898659
0.000890598
0.000882464
0.000874272
0.000866031
0.000857746
0.000849416
0.000841034
0.000832576
0.000823989
0.000815124
0.00080574
0.000794323
0.000764145
1.8595e-06
4.0834e-05
8.90216e-05
0.000125573
0.00015197
0.000171029
0.000185415
0.000197257
0.000208031
0.000218621
0.000229456
0.000240663
0.000252205
0.000263965
0.000275812
0.000287616
0.000299262
0.00031065
0.000321687
0.000332283
0.000342335
0.000351711
0.000360234
0.000367651
0.000373626
0.000377742
0.00037955
0.000378626
0.000374952
0.000368814
0.000361024
0.000352964
0.000346804
0.000346388
0.000362004
0.000381971
0.000403391
0.000424749
0.000445785
0.000466465
0.000486516
0.000506699
0.000525536
0.000541347
0.000556946
0.000572675
0.000588736
0.00060499
0.000621464
0.000638102
0.000654903
0.000671851
0.000688943
0.000706176
0.00072355
0.000741065
0.000758724
0.000776525
0.000794472
0.000812562
0.000830798
0.000849181
0.00086771
0.000886384
0.000905201
0.000924157
0.000943249
0.000962472
0.000981822
0.00100129
0.00102088
0.00104056
0.00106035
0.00108023
0.00110019
0.00112021
0.0011403
0.00116044
0.00118061
0.00120081
0.00122102
0.00124124
0.00126144
0.00128162
0.00130176
0.00132186
0.00134188
0.00136184
0.0013817
0.00140145
0.00142107
0.00144054
0.00145983
0.00147889
0.00149768
0.00151612
0.00153414
0.00155165
0.00156871
0.00158555
0.00160211
0.00161839
0.00163438
0.00165006
0.00166542
0.00168045
0.00169515
0.00170949
0.00172346
0.00173707
0.00175029
0.00176312
0.00177556
0.00178758
0.00179919
0.00181037
0.00182112
0.00183144
0.00184131
0.00185073
0.0018597
0.0018682
0.00187624
0.00188382
0.00189092
0.00189755
0.00190371
0.00190939
0.00191459
0.00191935
0.00192373
0.00192755
0.0019306
0.00193325
0.00193562
0.00193745
0.00193879
0.00193966
0.00194006
0.00193999
0.00193946
0.00193848
0.00193705
0.00193519
0.00193289
0.00193018
0.00192704
0.0019235
0.00191956
0.00191524
0.00191053
0.00190547
0.00190004
0.00189428
0.00188818
0.00188176
0.00187503
0.001868
0.00186068
0.00185306
0.00184515
0.00183684
0.00182779
0.00181709
0.00180498
0.00179215
0.00177892
0.00176544
0.00175176
0.00173793
0.00172397
0.00170988
0.00169567
0.00168133
0.00166682
0.00165201
0.00163665
0.00162002
0.00159929
0.00155499
3.01312e-06
5.37175e-05
0.000115005
0.000162699
0.000197762
0.000223672
0.000243464
0.000259504
0.0002735
0.000286569
0.000299358
0.000312172
0.000325106
0.000338136
0.000351186
0.000364168
0.000376999
0.000389612
0.000401957
0.000414
0.000425719
0.000437095
0.000448104
0.000458704
0.000468826
0.000478374
0.000487235
0.000495324
0.000502671
0.000509506
0.000516377
0.00052425
0.000534553
0.000549007
0.000568785
0.000590765
0.000613567
0.000636623
0.000659764
0.00068303
0.000706331
0.000729685
0.000752656
0.000775315
0.000797982
0.000820769
0.000843746
0.000866909
0.000890268
0.000913815
0.000937551
0.000961472
0.000985578
0.00100987
0.00103434
0.00105901
0.00108387
0.00110892
0.00113416
0.0011596
0.00118523
0.00121105
0.00123706
0.00126325
0.00128963
0.00131618
0.00134291
0.00136979
0.00139683
0.00142401
0.00145133
0.00147877
0.00150632
0.00153397
0.00156171
0.00158951
0.00161738
0.00164528
0.00167321
0.00170115
0.00172908
0.00175698
0.00178484
0.00181264
0.00184036
0.00186798
0.00189547
0.00192283
0.00195002
0.00197703
0.00200382
0.00203036
0.00205663
0.00208257
0.00210815
0.0021333
0.00215798
0.00218219
0.00220599
0.00222942
0.00225248
0.00227514
0.00229739
0.00231921
0.00234059
0.00236151
0.00238195
0.0024019
0.00242134
0.00244027
0.00245866
0.00247651
0.00249381
0.00251053
0.00252668
0.00254224
0.0025572
0.00257155
0.00258529
0.00259841
0.00261089
0.00262274
0.00263394
0.00264449
0.00265439
0.00266364
0.00267222
0.00268015
0.00268743
0.00269413
0.00270033
0.00270557
0.00270987
0.00271375
0.00271705
0.00271966
0.0027216
0.00272289
0.00272352
0.00272352
0.00272288
0.00272161
0.00271973
0.00271724
0.00271415
0.00271047
0.00270621
0.00270139
0.00269602
0.00269011
0.00268367
0.00267673
0.00266928
0.00266136
0.00265296
0.00264412
0.00263484
0.00262514
0.00261502
0.0026045
0.00259356
0.00258211
0.00256991
0.0025564
0.00254166
0.00252609
0.00250999
0.0024935
0.00247672
0.00245969
0.00244245
0.00242502
0.00240742
0.00238964
0.00237167
0.0023534
0.00233447
0.00231395
0.00228853
0.00224201
4.18298e-06
6.45655e-05
0.000136854
0.000193811
0.000236483
0.000268415
0.000292959
0.000312722
0.000329616
0.000344951
0.000359551
0.000373879
0.000388155
0.000402453
0.000416768
0.000431064
0.000445305
0.000459465
0.00047354
0.000487549
0.000501535
0.000515563
0.000529713
0.000544075
0.000558732
0.00057375
0.000589168
0.000604993
0.00062123
0.000637913
0.000655178
0.000673332
0.00069288
0.000714297
0.000737582
0.000762002
0.000787128
0.000812795
0.000838983
0.000865715
0.000892947
0.000920565
0.000948393
0.00097615
0.00100404
0.00103212
0.00106039
0.00108887
0.00111756
0.00114646
0.00117557
0.0012049
0.00123445
0.00126421
0.00129417
0.00132436
0.00135477
0.00138541
0.00141626
0.00144735
0.00147865
0.00151016
0.00154189
0.00157382
0.00160595
0.00163826
0.00167076
0.00170343
0.00173626
0.00176924
0.00180235
0.00183558
0.00186891
0.00190234
0.00193584
0.00196939
0.00200298
0.00203658
0.00207019
0.00210377
0.00213731
0.0021708
0.0022042
0.00223749
0.00227066
0.00230367
0.00233651
0.00236916
0.00240158
0.00243375
0.00246564
0.00249722
0.00252846
0.00255932
0.00258978
0.00261981
0.00264941
0.00267856
0.00270726
0.00273553
0.00276334
0.00279068
0.00281752
0.00284386
0.00286966
0.00289492
0.00291961
0.00294371
0.00296722
0.00299012
0.00301238
0.003034
0.00305496
0.00307525
0.00309486
0.00311377
0.00313197
0.00314946
0.00316621
0.00318223
0.0031975
0.00321202
0.00322578
0.00323877
0.00325099
0.00326243
0.00327309
0.00328298
0.00329211
0.00330067
0.00330837
0.00331504
0.00332068
0.00332587
0.00333025
0.00333385
0.00333666
0.00333869
0.00333995
0.00334044
0.00334019
0.00333919
0.00333745
0.00333499
0.00333182
0.00332794
0.00332338
0.00331814
0.00331223
0.00330568
0.00329849
0.00329069
0.00328229
0.0032733
0.00326375
0.00325364
0.003243
0.00323185
0.00322019
0.00320803
0.00319537
0.00318214
0.00316818
0.0031532
0.00313719
0.00312037
0.00310295
0.00308505
0.00306676
0.00304816
0.00302928
0.00301016
0.00299081
0.00297126
0.00295148
0.00293135
0.00291057
0.00288816
0.00286091
0.00281678
5.30529e-06
7.37243e-05
0.000155296
0.000220261
0.000269748
0.000307185
0.000336134
0.000359393
0.000379045
0.000396567
0.000412942
0.000428779
0.000444423
0.000460047
0.000475725
0.000491483
0.000507331
0.000523282
0.000539364
0.000555628
0.000572143
0.000589001
0.000606308
0.00062418
0.00064273
0.000662055
0.000682224
0.000703266
0.000725178
0.000747928
0.000771489
0.000795878
0.000821174
0.000847447
0.000874643
0.000902584
0.000931148
0.000960282
0.000989976
0.00102023
0.00105099
0.00108217
0.00111366
0.00114538
0.00117732
0.00120949
0.00124187
0.00127448
0.00130732
0.00134038
0.00137366
0.00140718
0.00144093
0.00147491
0.00150914
0.0015436
0.00157829
0.0016132
0.00164833
0.00168369
0.00171925
0.00175503
0.00179101
0.00182718
0.00186354
0.00190009
0.00193679
0.00197366
0.00201067
0.00204781
0.00208507
0.00212243
0.00215988
0.0021974
0.00223497
0.00227257
0.00231019
0.0023478
0.00238539
0.00242294
0.00246041
0.00249781
0.00253509
0.00257224
0.00260923
0.00264605
0.00268266
0.00271904
0.00275517
0.00279102
0.00282656
0.00286176
0.00289661
0.00293106
0.0029651
0.00299871
0.00303187
0.00306456
0.00309678
0.00312852
0.00315976
0.00319048
0.00322066
0.00325028
0.00327931
0.00330775
0.00333557
0.00336275
0.00338927
0.00341512
0.00344029
0.00346474
0.00348848
0.00351148
0.00353373
0.00355522
0.00357594
0.00359587
0.003615
0.00363332
0.00365082
0.0036675
0.00368335
0.00369835
0.0037125
0.0037258
0.00373825
0.00374984
0.00376069
0.00377085
0.00377993
0.00378796
0.00379501
0.00380146
0.00380703
0.00381172
0.00381554
0.00381851
0.00382064
0.00382192
0.00382237
0.003822
0.00382082
0.00381884
0.00381607
0.00381252
0.00380821
0.00380314
0.00379734
0.00379081
0.00378358
0.00377566
0.00376706
0.00375781
0.00374791
0.0037374
0.00372628
0.00371457
0.00370228
0.00368944
0.00367603
0.00366202
0.0036473
0.00363174
0.00361531
0.00359811
0.00358027
0.0035619
0.0035431
0.00352391
0.0035044
0.00348461
0.00346457
0.00344431
0.00342383
0.00340306
0.00338173
0.00335894
0.00333185
0.00329182
6.33793e-06
8.13255e-05
0.000170664
0.000242593
0.000298224
0.000340765
0.000373897
0.000400545
0.000422927
0.000442657
0.000460856
0.000478266
0.000495349
0.000512377
0.000529505
0.000546817
0.000564371
0.000582211
0.000600389
0.000618967
0.000638019
0.000657632
0.000677901
0.000698926
0.000720798
0.000743592
0.000767359
0.000792117
0.000817853
0.000844522
0.000872063
0.000900414
0.000929535
0.000959389
0.000989925
0.00102107
0.00105279
0.00108503
0.00111778
0.00115102
0.00118472
0.00121882
0.00125325
0.00128798
0.00132297
0.00135821
0.00139368
0.00142938
0.00146531
0.00150147
0.00153785
0.00157446
0.00161129
0.00164836
0.00168565
0.00172316
0.00176088
0.00179883
0.00183698
0.00187534
0.00191391
0.00195267
0.00199162
0.00203075
0.00207005
0.00210952
0.00214914
0.00218891
0.0022288
0.00226881
0.00230892
0.00234912
0.00238939
0.00242972
0.00247008
0.00251047
0.00255085
0.00259122
0.00263155
0.00267182
0.00271202
0.00275211
0.00279208
0.00283191
0.00287156
0.00291103
0.00295028
0.00298929
0.00302804
0.00306649
0.00310463
0.00314243
0.00317987
0.00321691
0.00325354
0.00328974
0.00332548
0.00336076
0.00339555
0.00342984
0.00346361
0.00349683
0.00352949
0.00356157
0.00359303
0.00362387
0.00365407
0.00368359
0.00371243
0.00374057
0.00376798
0.00379466
0.00382058
0.00384572
0.00387008
0.00389364
0.00391639
0.00393831
0.00395939
0.00397962
0.00399898
0.00401748
0.0040351
0.00405183
0.00406766
0.00408259
0.00409662
0.00410976
0.00412221
0.00413369
0.00414417
0.00415352
0.004162
0.0041697
0.00417646
0.00418231
0.00418725
0.00419128
0.00419441
0.00419666
0.00419803
0.00419852
0.00419816
0.00419695
0.0041949
0.00419202
0.00418833
0.00418384
0.00417856
0.00417251
0.00416571
0.00415816
0.00414989
0.00414092
0.00413125
0.00412091
0.00410991
0.00409828
0.00408602
0.00407315
0.00405967
0.00404556
0.00403078
0.00401524
0.00399893
0.0039819
0.00396423
0.003946
0.00392728
0.00390815
0.00388866
0.00386885
0.00384879
0.0038285
0.00380804
0.00378735
0.00376623
0.00374392
0.00371804
0.00368213
7.25092e-06
8.74779e-05
0.000183202
0.000261142
0.000322284
0.00036956
0.000406681
0.000436646
0.000461765
0.000483757
0.000503859
0.000522925
0.000541522
0.000560014
0.000578629
0.000597512
0.000616758
0.000636443
0.000656629
0.000677379
0.000698759
0.00072084
0.000743695
0.000767396
0.000792025
0.000817608
0.000844165
0.000871696
0.000900182
0.000929575
0.000959818
0.000990841
0.00102258
0.00105499
0.001088
0.00112158
0.00115567
0.00119026
0.0012253
0.00126078
0.00129668
0.00133295
0.00136954
0.00140644
0.00144362
0.00148105
0.00151871
0.00155659
0.00159469
0.00163301
0.00167153
0.00171026
0.0017492
0.00178834
0.00182769
0.00186725
0.001907
0.00194694
0.00198708
0.0020274
0.00206791
0.00210859
0.00214944
0.00219046
0.00223164
0.00227297
0.00231443
0.00235603
0.00239774
0.00243956
0.00248147
0.00252346
0.00256552
0.00260763
0.00264977
0.00269193
0.00273409
0.00277624
0.00281835
0.0028604
0.00290238
0.00294427
0.00298603
0.00302766
0.00306913
0.00311041
0.00315149
0.00319234
0.00323293
0.00327324
0.00331325
0.00335293
0.00339225
0.00343121
0.00346976
0.00350789
0.00354558
0.00358281
0.00361955
0.00365579
0.00369151
0.00372668
0.00376127
0.00379528
0.00382867
0.00386142
0.00389352
0.00392494
0.00395565
0.00398565
0.00401492
0.00404342
0.00407116
0.0040981
0.00412423
0.00414955
0.00417403
0.00419765
0.00422042
0.0042423
0.0042633
0.00428341
0.0043026
0.00432088
0.00433823
0.00435465
0.00437014
0.00438477
0.00439861
0.00441138
0.00442322
0.00443389
0.00444376
0.00445271
0.0044607
0.00446775
0.00447385
0.00447902
0.00448326
0.00448659
0.004489
0.00449052
0.00449115
0.0044909
0.00448978
0.0044878
0.00448498
0.00448133
0.00447686
0.00447159
0.00446553
0.0044587
0.00445112
0.00444279
0.00443374
0.00442398
0.00441353
0.0044024
0.00439061
0.00437818
0.0043651
0.00435138
0.004337
0.00432191
0.0043061
0.00428961
0.00427248
0.00425477
0.00423656
0.0042179
0.00419884
0.00417946
0.0041598
0.00413994
0.00411993
0.00409978
0.00407935
0.004058
0.00403383
0.00400247
8.02556e-06
9.2289e-05
0.000193128
0.00027618
0.00034221
0.000393842
0.000434747
0.000467942
0.000495792
0.00052009
0.00054216
0.000562948
0.00058311
0.000603092
0.000623183
0.00064358
0.000664419
0.000685819
0.000707834
0.000730511
0.0007539
0.000778048
0.000802994
0.000828758
0.000855392
0.000882964
0.000911491
0.000940962
0.000971345
0.0010026
0.00103467
0.00106749
0.001101
0.00113516
0.0011699
0.00120519
0.00124098
0.00127724
0.00131394
0.00135102
0.00138845
0.00142613
0.00146411
0.00150237
0.00154094
0.00157976
0.00161878
0.001658
0.00169742
0.00173701
0.00177679
0.00181675
0.00185688
0.0018972
0.00193769
0.00197836
0.0020192
0.00206021
0.00210139
0.00214274
0.00218426
0.00222593
0.00226776
0.00230975
0.00235188
0.00239415
0.00243656
0.0024791
0.00252175
0.00256452
0.00260738
0.00265033
0.00269336
0.00273645
0.00277959
0.00282276
0.00286596
0.00290916
0.00295234
0.00299549
0.00303859
0.00308163
0.00312457
0.0031674
0.00321009
0.00325263
0.00329499
0.00333715
0.00337908
0.00342076
0.00346216
0.00350327
0.00354405
0.00358448
0.00362453
0.00366419
0.00370343
0.00374222
0.00378054
0.00381838
0.00385569
0.00389247
0.00392868
0.00396431
0.00399932
0.0040337
0.00406743
0.00410047
0.00413281
0.00416444
0.00419531
0.00422543
0.00425477
0.00428331
0.00431103
0.00433791
0.00436395
0.00438913
0.00441343
0.00443684
0.00445934
0.00448093
0.0045016
0.00452133
0.00454011
0.00455795
0.00457483
0.0045909
0.00460599
0.0046201
0.00463324
0.0046453
0.00465651
0.00466673
0.00467597
0.00468425
0.00469156
0.00469793
0.00470335
0.00470784
0.0047114
0.00471405
0.00471579
0.00471663
0.00471659
0.00471567
0.0047139
0.00471127
0.00470781
0.00470353
0.00469845
0.00469258
0.00468592
0.00467851
0.00467035
0.00466146
0.00465185
0.00464154
0.00463055
0.00461888
0.00460655
0.00459355
0.0045799
0.00456556
0.00455054
0.00453485
0.00451852
0.00450162
0.00448418
0.00446628
0.00444795
0.00442928
0.00441034
0.0043912
0.00437193
0.0043526
0.00433311
0.00431297
0.00429068
0.00426369
8.65191e-06
9.58658e-05
0.000200633
0.000288038
0.000358237
0.000413842
0.000458298
0.000494603
0.00052514
0.00055175
0.000575817
0.000598354
0.000620097
0.000641576
0.000663109
0.000684888
0.000707034
0.000729587
0.000752774
0.000776692
0.0008014
0.000826938
0.000853345
0.00088066
0.00090891
0.000938082
0.000968164
0.000999114
0.00103089
0.00106346
0.00109676
0.00113075
0.00116537
0.00120058
0.00123633
0.00127258
0.00130928
0.0013464
0.00138391
0.00142177
0.00145997
0.00149852
0.00153736
0.00157643
0.00161567
0.00165511
0.00169471
0.00173446
0.00177435
0.00181438
0.00185455
0.00189487
0.00193533
0.00197594
0.00201669
0.0020576
0.00209865
0.00213986
0.00218123
0.00222274
0.00226442
0.00230625
0.00234824
0.00239038
0.00243267
0.00247512
0.00251772
0.00256046
0.00260334
0.00264636
0.0026895
0.00273277
0.00277614
0.00281961
0.00286317
0.00290681
0.0029505
0.00299424
0.00303802
0.0030818
0.00312559
0.00316934
0.00321306
0.00325671
0.00330026
0.00334371
0.00338703
0.00343019
0.00347316
0.00351592
0.00355845
0.00360072
0.0036427
0.00368437
0.0037257
0.00376666
0.00380723
0.00384737
0.00388708
0.00392631
0.00396504
0.00400325
0.00404091
0.004078
0.00411448
0.00415035
0.00418556
0.00422009
0.00425393
0.00428706
0.00431944
0.00435105
0.00438189
0.00441192
0.00444114
0.00446951
0.00449703
0.00452368
0.00454944
0.00457431
0.00459826
0.00462128
0.00464337
0.00466452
0.0046847
0.00470392
0.00472221
0.00473959
0.00475598
0.00477143
0.0047859
0.00479936
0.00481191
0.00482344
0.00483396
0.0048435
0.00485208
0.00485969
0.00486636
0.00487208
0.00487687
0.00488073
0.00488368
0.00488573
0.00488688
0.00488715
0.00488655
0.00488509
0.0048828
0.00487967
0.00487573
0.00487099
0.00486546
0.00485916
0.0048521
0.0048443
0.00483576
0.00482651
0.00481655
0.0048059
0.00479457
0.00478256
0.00476989
0.00475654
0.00474252
0.00472784
0.00471253
0.00469663
0.00468019
0.00466325
0.00464587
0.00462813
0.00461011
0.00459189
0.00457357
0.00455523
0.00453684
0.004518
0.00449756
0.00447414
9.12841e-06
9.83352e-05
0.000205963
0.000296937
0.000370665
0.000429813
0.000477543
0.000516789
0.000549918
0.000578792
0.000604858
0.000629103
0.000652238
0.000674712
0.000697079
0.000719685
0.000742758
0.000766504
0.000791006
0.000816263
0.000842303
0.000869155
0.000896844
0.000925384
0.000954772
0.000984969
0.00101595
0.00104769
0.00108017
0.00111336
0.00114721
0.00118167
0.00121671
0.00125227
0.00128831
0.00132478
0.00136167
0.00139891
0.00143649
0.00147438
0.00151254
0.00155095
0.00158957
0.0016284
0.0016675
0.00170681
0.00174622
0.00178567
0.00182519
0.00186479
0.00190448
0.00194428
0.00198419
0.00202422
0.00206438
0.00210468
0.00214511
0.00218569
0.00222643
0.00226733
0.0023084
0.00234965
0.00239107
0.00243268
0.00247448
0.00251646
0.00255864
0.00260101
0.00264357
0.00268632
0.00272925
0.00277237
0.00281565
0.00285909
0.00290269
0.00294643
0.0029903
0.00303427
0.00307835
0.00312251
0.00316672
0.00321098
0.00325526
0.00329953
0.00334377
0.00338797
0.00343208
0.0034761
0.00351998
0.0035637
0.00360724
0.00365056
0.00369364
0.00373645
0.00377895
0.00382113
0.00386294
0.00390436
0.00394537
0.00398592
0.004026
0.00406558
0.00410463
0.00414311
0.00418101
0.0042183
0.00425495
0.00429093
0.00432622
0.0043608
0.00439464
0.00442772
0.00446002
0.00449151
0.00452219
0.00455202
0.004581
0.0046091
0.00463631
0.00466261
0.004688
0.00471245
0.00473596
0.00475851
0.0047801
0.00480072
0.00482038
0.00483909
0.00485682
0.00487363
0.00488947
0.00490432
0.00491829
0.00493114
0.00494298
0.00495384
0.00496373
0.00497266
0.00498064
0.00498766
0.00499376
0.00499892
0.00500317
0.00500651
0.00500895
0.00501052
0.00501121
0.00501105
0.00501004
0.00500821
0.00500556
0.0050021
0.00499786
0.00499284
0.00498705
0.00498051
0.00497323
0.00496523
0.0049565
0.00494707
0.00493695
0.00492615
0.00491466
0.0049025
0.00488968
0.00487619
0.00486208
0.00484736
0.00483207
0.00481628
0.00480002
0.00478339
0.00476645
0.00474931
0.00473208
0.00471486
0.00469764
0.00468015
0.00466147
0.00464104
9.46111e-06
9.98397e-05
0.000209356
0.000303102
0.00037977
0.000442013
0.000492704
0.000534694
0.000570243
0.0006011
0.000628553
0.000653927
0.000678124
0.000701869
0.000725574
0.000749471
0.000773764
0.000798589
0.000823974
0.000850024
0.000876793
0.000904313
0.000932598
0.000961648
0.000991453
0.00102199
0.00105323
0.00108513
0.00111767
0.00115081
0.00118451
0.00121874
0.00125347
0.00128863
0.0013242
0.00136013
0.00139639
0.00143294
0.00146976
0.00150682
0.00154407
0.00158146
0.00161906
0.00165696
0.00169515
0.00173338
0.00177165
0.00180993
0.00184817
0.00188642
0.00192473
0.00196312
0.0020016
0.00204019
0.00207892
0.00211778