/*--------------------------------*- C++ -*----------------------------------*\
  =========                 |
  \\      /  F ield         | OpenFOAM: The Open Source CFD Toolbox
   \\    /   O peration     | Website:  https://openfoam.org
    \\  /    A nd           | Version:  11
     \\/     M anipulation  |
\*---------------------------------------------------------------------------*/
FoamFile
{
    format      ascii;
    class       volScalarField;
    location    "287";
    object      p;
}
// * * * * * * * * * * * * * * * * * * * * * * * * * * * * * * * * * * * * * //

dimensions      [0 2 -2 0 0 0 0];

internalField   nonuniform List<scalar> 
12225
(
-1.31541
-3.50339
-4.6035
-4.92431
-5.1058
-5.27512
-5.407
-5.50264
-5.57987
-5.64804
-5.70905
-5.76522
-5.81674
-5.86546
-5.91198
-5.95254
-6.00369
-5.98745
-4.47778
-5.24662
-5.4072
-5.31513
-5.30282
-5.37095
-5.44886
-5.51508
-5.57531
-5.63352
-5.68913
-5.74131
-5.79086
-5.83818
-5.88436
-5.92665
-5.97512
-6.01318
-4.87841
-4.86423
-4.99174
-5.07028
-5.16539
-5.28583
-5.39343
-5.47873
-5.55115
-5.61726
-5.67833
-5.73448
-5.78721
-5.83699
-5.88541
-5.93065
-5.98146
-6.02667
-4.75702
-4.7004
-4.94214
-5.10062
-5.20256
-5.30903
-5.40708
-5.48756
-5.55688
-5.62069
-5.68017
-5.73534
-5.78741
-5.83683
-5.88499
-5.93125
-5.98071
-6.02889
-4.74708
-4.77147
-4.99962
-5.14132
-5.22513
-5.31744
-5.40899
-5.48713
-5.55522
-5.61813
-5.67709
-5.73212
-5.78421
-5.83387
-5.88231
-5.9295
-5.97834
-6.02785
-4.80517
-4.85398
-5.02832
-5.15235
-5.23404
-5.3221
-5.41045
-5.48736
-5.55483
-5.61716
-5.67571
-5.73058
-5.78257
-5.8323
-5.88073
-5.92818
-5.97635
-6.0253
-4.86547
-4.90961
-5.04485
-5.16129
-5.24519
-5.32954
-5.41375
-5.48875
-5.55529
-5.61686
-5.6748
-5.72933
-5.78108
-5.83067
-5.8789
-5.92617
-5.97351
-6.02108
-4.91892
-4.95651
-5.06653
-5.17492
-5.25806
-5.33786
-5.41753
-5.49033
-5.55578
-5.61648
-5.67372
-5.72781
-5.77922
-5.82854
-5.8764
-5.9232
-5.96956
-6.01549
-4.96855
-5.00167
-5.09265
-5.19069
-5.2709
-5.34644
-5.42183
-5.49223
-5.55637
-5.61607
-5.6725
-5.726
-5.77694
-5.82583
-5.87314
-5.91923
-5.96445
-6.00867
-5.01551
-5.04476
-5.12033
-5.20762
-5.28393
-5.35562
-5.42692
-5.49465
-5.55724
-5.61576
-5.67122
-5.72396
-5.77427
-5.82254
-5.86915
-5.91433
-5.9583
-6.00085
-5.05972
-5.08522
-5.14846
-5.22569
-5.29746
-5.3654
-5.43277
-5.49765
-5.55843
-5.61562
-5.66997
-5.72179
-5.7713
-5.81879
-5.86452
-5.90866
-5.95133
-5.99228
-5.09764
-5.11999
-5.17422
-5.2431
-5.31028
-5.37476
-5.4387
-5.50087
-5.55984
-5.61566
-5.66886
-5.71971
-5.76835
-5.81498
-5.8598
-5.9029
-5.94437
-5.98393
-5.13264
-5.15236
-5.19922
-5.26063
-5.32317
-5.38423
-5.44491
-5.50441
-5.56147
-5.61584
-5.66781
-5.71759
-5.76527
-5.81097
-5.85481
-5.89684
-5.93712
-5.97539
-5.16928
-5.18648
-5.22651
-5.28055
-5.33789
-5.39509
-5.45224
-5.50876
-5.56355
-5.61616
-5.66664
-5.7151
-5.76158
-5.80612
-5.84878
-5.88958
-5.92853
-5.96544
-5.20632
-5.22111
-5.25511
-5.3022
-5.35408
-5.40706
-5.46051
-5.51381
-5.56602
-5.61656
-5.66528
-5.71217
-5.7572
-5.80035
-5.84164
-5.88105
-5.91858
-5.95408
-5.24176
-5.25439
-5.28332
-5.32426
-5.3708
-5.41947
-5.46917
-5.51916
-5.56859
-5.61682
-5.66354
-5.70864
-5.75201
-5.79359
-5.83336
-5.87127
-5.90733
-5.94142
-5.27271
-5.28358
-5.30852
-5.34444
-5.38627
-5.43093
-5.47709
-5.52392
-5.57059
-5.61643
-5.66106
-5.70424
-5.74584
-5.78575
-5.82392
-5.86031
-5.8949
-5.92764
-5.2948
-5.30445
-5.32668
-5.3591
-5.39748
-5.43903
-5.48237
-5.52659
-5.57088
-5.61458
-5.65725
-5.69862
-5.73852
-5.77682
-5.81345
-5.84838
-5.8816
-5.91308
-5.30115
-5.31029
-5.33148
-5.36257
-5.39958
-5.43975
-5.48167
-5.52446
-5.56734
-5.60965
-5.65095
-5.69096
-5.72952
-5.76653
-5.80191
-5.83565
-5.86774
-5.89821
-5.28467
-5.29443
-5.31699
-5.35
-5.38891
-5.43049
-5.47331
-5.51667
-5.55985
-5.60221
-5.64333
-5.683
-5.7211
-5.75756
-5.79235
-5.82546
-5.85692
-5.88678
-5.25759
-5.26836
-5.29359
-5.33054
-5.37322
-5.41762
-5.46256
-5.50763
-5.55208
-5.59523
-5.63679
-5.67666
-5.7148
-5.75117
-5.78577
-5.81864
-5.84983
-5.87942
-5.22221
-5.234
-5.26331
-5.30683
-5.35501
-5.40287
-5.45054
-5.4981
-5.54448
-5.58888
-5.6312
-5.67155
-5.70995
-5.74641
-5.78099
-5.81376
-5.8448
-5.87421
-5.18155
-5.19342
-5.22783
-5.28103
-5.33647
-5.38831
-5.43906
-5.48934
-5.53769
-5.58338
-5.62661
-5.6676
-5.7064
-5.74307
-5.77771
-5.81048
-5.84147
-5.87081
-5.13778
-5.14872
-5.19045
-5.25479
-5.31687
-5.37343
-5.42891
-5.48261
-5.53271
-5.57935
-5.62329
-5.66479
-5.70387
-5.74064
-5.77531
-5.80803
-5.83895
-5.8682
-5.09083
-5.09627
-5.15887
-5.237
-5.29884
-5.35698
-5.41798
-5.47619
-5.52854
-5.57643
-5.62127
-5.66335
-5.70272
-5.73958
-5.77423
-5.8069
-5.83774
-5.86696
-5.04754
-5.01108
-5.12056
-5.23145
-5.29361
-5.34878
-5.41085
-5.47044
-5.5235
-5.57206
-5.6176
-5.66023
-5.69993
-5.737
-5.77176
-5.80448
-5.83537
-5.8646
-5.06162
-4.9026
-5.03149
-5.1855
-5.27552
-5.34677
-5.41557
-5.47633
-5.52898
-5.5771
-5.62221
-5.66431
-5.70343
-5.73993
-5.77415
-5.80638
-5.83686
-5.86582
-5.18433
-5.00431
-5.01848
-5.09056
-5.17884
-5.27795
-5.36851
-5.44214
-5.50369
-5.55867
-5.60882
-5.65443
-5.69607
-5.7344
-5.76994
-5.80313
-5.83444
-5.86448
-4.89164
-5.48319
-5.57201
-5.4477
-5.39327
-5.42032
-5.46716
-5.51026
-5.55166
-5.59369
-5.63502
-5.67419
-5.71099
-5.74555
-5.77797
-5.80838
-5.837
-5.86562
-1.90338
-3.66613
-4.67078
-4.96986
-5.11894
-5.26245
-5.37635
-5.45717
-5.52124
-5.57795
-5.62904
-5.67492
-5.71644
-5.75451
-5.78965
-5.82166
-5.85039
-5.87407
-6.73216
-6.73218
-6.73253
-6.73327
-6.73424
-6.73535
-6.73663
-6.73808
-6.73976
-6.7417
-6.74395
-6.74655
-6.74956
-6.75301
-6.75696
-6.76144
-6.76649
-6.77217
-6.77851
-6.78555
-6.79334
-6.80193
-6.81138
-6.82176
-6.83317
-6.84574
-6.8597
-6.87517
-6.892
-6.90979
-6.92813
-6.9467
-6.96544
-6.98554
-7.00881
-7.03487
-7.06236
-7.09103
-7.11987
-7.14798
-7.17575
-7.20037
-7.21976
-7.24129
-7.26736
-7.2948
-7.32338
-7.35262
-7.38231
-7.41228
-7.4424
-7.47255
-7.50262
-7.53252
-7.56213
-7.59136
-7.6201
-7.64826
-7.67572
-7.70236
-7.72806
-7.7527
-7.77615
-7.79826
-7.8189
-7.83792
-7.85515
-7.87044
-7.88361
-7.89451
-7.90294
-7.90874
-7.9117
-7.91165
-7.90839
-7.90173
-7.89147
-7.87742
-7.85937
-7.83713
-7.8105
-7.7793
-7.74332
-7.70239
-7.65631
-7.60492
-7.54802
-7.48545
-7.41706
-7.34268
-7.2622
-7.17548
-7.08239
-6.98279
-6.87664
-6.76402
-6.64504
-6.51949
-6.38679
-6.24681
-6.09979
-5.94579
-5.78486
-5.61701
-5.44228
-5.26072
-5.07237
-4.87733
-4.67567
-4.46751
-4.25296
-4.03216
-3.80527
-3.57243
-3.33384
-3.08968
-2.84016
-2.58548
-2.32588
-2.06162
-1.79293
-1.52009
-1.24336
-0.963007
-0.679325
-0.392611
-0.103169
0.188687
0.482656
0.778436
1.07572
1.37414
1.67337
1.97309
2.273
2.57278
2.8721
3.17065
3.4681
3.76416
4.05852
4.35091
4.64103
4.92863
5.21343
5.4952
5.77369
6.04867
6.31994
6.58728
6.85052
7.10948
7.364
7.61392
7.85911
8.09946
8.33484
8.56517
8.79035
9.01032
9.22502
9.43441
9.63856
9.83748
10.0309
10.2187
10.4008
10.5773
10.7481
10.9134
11.0731
11.2272
11.3759
11.5192
11.6574
11.7908
11.9209
12.0489
12.1866
12.3306
-6.73114
-6.7314
-6.73188
-6.73255
-6.7332
-6.73377
-6.73437
-6.73512
-6.73615
-6.73751
-6.73923
-6.74134
-6.74389
-6.74689
-6.75036
-6.75436
-6.75891
-6.76406
-6.76985
-6.77631
-6.78351
-6.79148
-6.8003
-6.81
-6.82066
-6.83234
-6.84503
-6.85863
-6.873
-6.88821
-6.90444
-6.92198
-6.94146
-6.96318
-6.98517
-7.00586
-7.02616
-7.04596
-7.06626
-7.08909
-7.11328
-7.14076
-7.17591
-7.21166
-7.24267
-7.27276
-7.30257
-7.3324
-7.36231
-7.39231
-7.42235
-7.45235
-7.48225
-7.51195
-7.54138
-7.57043
-7.59901
-7.62703
-7.65437
-7.68092
-7.70656
-7.73118
-7.75464
-7.7768
-7.79752
-7.81666
-7.83406
-7.84956
-7.86299
-7.87418
-7.88296
-7.88914
-7.89254
-7.89298
-7.89025
-7.88418
-7.87455
-7.86119
-7.84387
-7.82243
-7.79664
-7.76633
-7.73131
-7.69137
-7.64635
-7.59606
-7.54033
-7.479
-7.41189
-7.33887
-7.25981
-7.17458
-7.08304
-6.98507
-6.88055
-6.76936
-6.65128
-6.52619
-6.3943
-6.25572
-6.11029
-5.95795
-5.7987
-5.63256
-5.45954
-5.27969
-5.09307
-4.89974
-4.6998
-4.49334
-4.28048
-4.06136
-3.83612
-3.60492
-3.36794
-3.12536
-2.87739
-2.62422
-2.3661
-2.10327
-1.83597
-1.56447
-1.28902
-1.00991
-0.727403
-0.441808
-0.153426
0.137433
0.430465
0.725378
1.02186
1.31956
1.61813
1.91727
2.21667
2.51602
2.81499
3.11325
3.4105
3.70643
4.00074
4.29315
4.58338
4.87115
5.1562
5.43828
5.71715
5.99258
6.26437
6.53229
6.79617
7.05583
7.31109
7.56182
7.80787
8.04911
8.28545
8.51676
8.74298
8.96404
9.17992
9.39055
9.59571
9.7951
9.98876
10.1768
10.3593
10.5361
10.7074
10.8732
11.0334
11.1881
11.3374
11.4814
11.6205
11.7551
11.8868
12.0167
12.1572
12.2959
-6.72752
-6.7284
-6.72966
-6.73076
-6.73145
-6.73187
-6.73223
-6.73272
-6.73347
-6.73456
-6.73605
-6.73795
-6.7403
-6.74314
-6.74647
-6.75035
-6.75479
-6.75986
-6.76558
-6.772
-6.77916
-6.78713
-6.79595
-6.80568
-6.81637
-6.82807
-6.8408
-6.85447
-6.86899
-6.88437
-6.90077
-6.91847
-6.93775
-6.95853
-6.98002
-7.00153
-7.0232
-7.0452
-7.0677
-7.09087
-7.11453
-7.1397
-7.16797
-7.19777
-7.22724
-7.25667
-7.28609
-7.31554
-7.34503
-7.37456
-7.4041
-7.43359
-7.46297
-7.49216
-7.52109
-7.54968
-7.57782
-7.60542
-7.63238
-7.65859
-7.68394
-7.70829
-7.73153
-7.75352
-7.77412
-7.79318
-7.81055
-7.82607
-7.83958
-7.85091
-7.85987
-7.8663
-7.87001
-7.87081
-7.86852
-7.86293
-7.85386
-7.84112
-7.82449
-7.8038
-7.77883
-7.74941
-7.71533
-7.67642
-7.63248
-7.58335
-7.52883
-7.46877
-7.40301
-7.33138
-7.25377
-7.17003
-7.08004
-6.98368
-6.88086
-6.77145
-6.65526
-6.53216
-6.40222
-6.26551
-6.122
-5.97162
-5.81437
-5.65025
-5.47928
-5.30149
-5.11695
-4.9257
-4.72785
-4.52349
-4.31272
-4.09569
-3.87252
-3.64339
-3.40845
-3.16789
-2.92191
-2.67071
-2.41453
-2.15359
-1.88815
-1.61845
-1.34477
-1.06736
-0.786511
-0.502514
-0.215672
0.0737092
0.365326
0.658892
0.954092
1.25058
1.54802
1.84611
2.14454
2.44299
2.74114
3.03866
3.33526
3.63061
3.92443
4.21643
4.50632
4.79383
5.0787
5.36068
5.63953
5.91501
6.1869
6.45501
6.71913
6.97909
7.23471
7.48585
7.73237
7.97413
8.21101
8.44291
8.66973
8.89138
9.10777
9.31888
9.52468
9.72507
9.92002
10.1095
10.2933
10.4715
10.6442
10.8112
10.9728
11.1288
11.2795
11.425
11.5657
11.7022
11.8362
11.9679
12.1107
12.2374
-6.72151
-6.72314
-6.72561
-6.72764
-6.72891
-6.72973
-6.73039
-6.73106
-6.7319
-6.73301
-6.73448
-6.73635
-6.73867
-6.74147
-6.74479
-6.74865
-6.75309
-6.75816
-6.76389
-6.77033
-6.77752
-6.78551
-6.79435
-6.80408
-6.81475
-6.82639
-6.83901
-6.85256
-6.86698
-6.88222
-6.89838
-6.91558
-6.93398
-6.95353
-6.97399
-6.99508
-7.01672
-7.03905
-7.06222
-7.08623
-7.11104
-7.13678
-7.1637
-7.19151
-7.21979
-7.24836
-7.27711
-7.306
-7.335
-7.36406
-7.39314
-7.42219
-7.45115
-7.47994
-7.50849
-7.53673
-7.56455
-7.59186
-7.61857
-7.64457
-7.66973
-7.69395
-7.71708
-7.73901
-7.75959
-7.77867
-7.79611
-7.81174
-7.8254
-7.83692
-7.84613
-7.85284
-7.85688
-7.85806
-7.85619
-7.85108
-7.84253
-7.83034
-7.81433
-7.7943
-7.77004
-7.74137
-7.70809
-7.67003
-7.62698
-7.57878
-7.52525
-7.46621
-7.4015
-7.33098
-7.2545
-7.17192
-7.0831
-6.98793
-6.8863
-6.7781
-6.66321
-6.54153
-6.41308
-6.27786
-6.13583
-5.98697
-5.83124
-5.66867
-5.49926
-5.32305
-5.14009
-4.95044
-4.75418
-4.55141
-4.34223
-4.12679
-3.9052
-3.67763
-3.44425
-3.20523
-2.96076
-2.71106
-2.45635
-2.19685
-1.93282
-1.6645
-1.39216
-1.11604
-0.836455
-0.553673
-0.268002
0.0202542
0.3108
0.603349
0.897572
1.19313
1.4897
1.787
2.08469
2.38246
2.67998
2.97694
3.27303
3.56794
3.86138
4.15306
4.44269
4.73
5.01474
5.29664
5.57546
5.85097
6.12294
6.39118
6.65548
6.91566
7.17156
7.42301
7.66986
7.91199
8.14927
8.3816
8.60891
8.83108
9.04803
9.25972
9.46612
9.66725
9.86304
10.0534
10.2381
10.4173
10.5908
10.7588
10.9213
11.0783
11.23
11.3766
11.5184
11.6559
11.791
11.9226
12.0636
12.1765
-6.71449
-6.71693
-6.72084
-6.72405
-6.72616
-6.72762
-6.72879
-6.72987
-6.73105
-6.73243
-6.73412
-6.73618
-6.73868
-6.74165
-6.74513
-6.74916
-6.75377
-6.75902
-6.76494
-6.77157
-6.77897
-6.78716
-6.79621
-6.80614
-6.81699
-6.82879
-6.84153
-6.8552
-6.86977
-6.88521
-6.90153
-6.9188
-6.93704
-6.95624
-6.9763
-6.99709
-7.01857
-7.04078
-7.06379
-7.08765
-7.11238
-7.138
-7.16445
-7.19156
-7.21915
-7.24709
-7.27529
-7.30368
-7.33222
-7.36085
-7.38954
-7.41822
-7.44683
-7.4753
-7.50355
-7.53151
-7.55909
-7.58619
-7.61271
-7.63855
-7.6636
-7.68772
-7.7108
-7.73271
-7.7533
-7.77242
-7.78993
-7.80567
-7.81948
-7.83117
-7.84059
-7.84755
-7.85186
-7.85335
-7.85182
-7.84708
-7.83893
-7.82718
-7.81164
-7.7921
-7.76837
-7.74026
-7.70758
-7.67013
-7.62773
-7.58021
-7.52738
-7.46907
-7.40512
-7.33538
-7.2597
-7.17794
-7.08997
-6.99566
-6.89491
-6.78761
-6.67366
-6.553
-6.42558
-6.2914
-6.15041
-6.00258
-5.84791
-5.6864
-5.51806
-5.34292
-5.16104
-4.97247
-4.77729
-4.57561
-4.36752
-4.15315
-3.93264
-3.70614
-3.4738
-3.23583
-2.99239
-2.7437
-2.48998
-2.23147
-1.96839
-1.701
-1.42955
-1.15431
-0.875568
-0.593604
-0.308718
-0.0212166
0.268623
0.560495
0.854065
1.149
1.44501
1.74179
2.03901
2.33633
2.63346
2.93007
3.22585
3.5205
3.81372
4.10522
4.39472
4.68195
4.96664
5.24854
5.5274
5.80299
6.07509
6.34348
6.60798
6.86839
7.12454
7.37627
7.62345
7.86594
8.10361
8.33637
8.56411
8.78674
9.00418
9.21635
9.42321
9.62474
9.82092
10.0117
10.1969
10.3765
10.5506
10.7191
10.8821
11.0397
11.1919
11.339
11.4813
11.6191
11.7541
11.8842
12.0218
12.1218
-6.70789
-6.7111
-6.71638
-6.72078
-6.72378
-6.72596
-6.72775
-6.72937
-6.73101
-6.73281
-6.73487
-6.73729
-6.74011
-6.7434
-6.7472
-6.75155
-6.75649
-6.76206
-6.7683
-6.77526
-6.78299
-6.79151
-6.80088
-6.81113
-6.82228
-6.83434
-6.84734
-6.86125
-6.87606
-6.89175
-6.9083
-6.92573
-6.94402
-6.96317
-6.98311
-7.00382
-7.02525
-7.0474
-7.0703
-7.09395
-7.11836
-7.14354
-7.16943
-7.19593
-7.22293
-7.25032
-7.27802
-7.30597
-7.33412
-7.36239
-7.39075
-7.41913
-7.44747
-7.47569
-7.50372
-7.53149
-7.5589
-7.58587
-7.61228
-7.63804
-7.66303
-7.68713
-7.71021
-7.73214
-7.75279
-7.772
-7.78962
-7.8055
-7.81946
-7.83134
-7.84096
-7.84814
-7.85271
-7.85447
-7.85323
-7.8488
-7.84098
-7.82959
-7.81441
-7.79526
-7.77194
-7.74425
-7.712
-7.67501
-7.63308
-7.58604
-7.53371
-7.47592
-7.4125
-7.3433
-7.26818
-7.18699
-7.09961
-7.0059
-6.90577
-6.7991
-6.68581
-6.56583
-6.43912
-6.30563
-6.16534
-6.01822
-5.86426
-5.70345
-5.53583
-5.36141
-5.18025
-4.99241
-4.79796
-4.59701
-4.38965
-4.17601
-3.95622
-3.73044
-3.49882
-3.26155
-3.01882
-2.77083
-2.5178
-2.25996
-1.99754
-1.73079
-1.45997
-1.18534
-0.907183
-0.625791
-0.341461
-0.054485
0.234856
0.526242
0.819338
1.11383
1.40944
1.70585
2.00272
2.29974
2.59658
2.89293
3.18848
3.48294
3.776
4.06738
4.35679
4.64395
4.92862
5.21052
5.48941
5.76507
6.03725
6.30577
6.5704
6.83099
7.08734
7.33931
7.58675
7.82952
8.0675
8.30057
8.52864
8.75161
8.9694
9.18191
9.38909
9.59091
9.78735
9.97835
10.1638
10.3438
10.5182
10.6871
10.8504
11.0083
11.1608
11.3082
11.4506
11.5884
11.7226
11.8507
11.9848
12.0735
-6.7028
-6.70673
-6.71313
-6.71854
-6.72238
-6.7253
-6.72772
-6.72992
-6.73209
-6.73437
-6.73688
-6.73973
-6.74297
-6.74666
-6.75086
-6.75561
-6.76095
-6.76692
-6.77357
-6.78093
-6.78904
-6.79794
-6.80767
-6.81825
-6.82972
-6.84207
-6.85532
-6.86946
-6.88448
-6.90036
-6.91708
-6.93463
-6.95299
-6.97214
-6.99205
-7.0127
-7.03407
-7.05616
-7.07896
-7.10246
-7.12665
-7.15151
-7.177
-7.20307
-7.22962
-7.25659
-7.28391
-7.31152
-7.33935
-7.36735
-7.39546
-7.42363
-7.45177
-7.47983
-7.50774
-7.5354
-7.56273
-7.58963
-7.61602
-7.64177
-7.66678
-7.69092
-7.71407
-7.73609
-7.75684
-7.77617
-7.79394
-7.80997
-7.82411
-7.83618
-7.846
-7.85341
-7.8582
-7.8602
-7.85921
-7.85503
-7.84749
-7.83636
-7.82147
-7.8026
-7.77958
-7.75219
-7.72025
-7.68357
-7.64196
-7.59525
-7.54325
-7.48579
-7.42271
-7.35386
-7.27909
-7.19827
-7.11125
-7.01792
-6.91817
-6.8119
-6.69902
-6.57947
-6.45319
-6.32014
-6.18029
-6.0336
-5.88008
-5.71972
-5.55254
-5.37857
-5.19787
-5.01048
-4.8165
-4.61601
-4.40912
-4.19594
-3.97663
-3.75132
-3.52018
-3.28338
-3.04112
-2.7936
-2.54103
-2.28365
-2.02168
-1.75538
-1.48499
-1.21079
-0.933054
-0.652069
-0.368137
-0.0815364
0.207435
0.498452
0.79119
1.08535
1.38066
1.67679
1.97339
2.27016
2.56677
2.86291
3.15828
3.45257
3.74549
4.03675
4.32606
4.61316
4.89778
5.17965
5.45854
5.73421
6.00643
6.27501
6.53974
6.80044
7.05693
7.30905
7.55666
7.79962
8.0378
8.2711
8.49939
8.7226
8.94063
9.15339
9.36081
9.56285
9.75951
9.95072
10.1364
10.3166
10.4913
10.6604
10.824
10.9821
11.1348
11.2822
11.4245
11.5618
11.6951
11.8208
11.9519
12.0305
-6.69997
-6.70444
-6.71165
-6.71786
-6.72242
-6.72598
-6.72901
-6.73177
-6.73445
-6.73722
-6.7402
-6.7435
-6.74718
-6.75131
-6.75594
-6.76111
-6.76687
-6.77326
-6.78031
-6.78807
-6.79657
-6.80585
-6.81592
-6.82683
-6.83858
-6.8512
-6.86467
-6.87901
-6.89419
-6.91021
-6.92705
-6.94468
-6.96309
-6.98226
-7.00217
-7.02279
-7.04412
-7.06614
-7.08884
-7.11221
-7.13622
-7.16087
-7.1861
-7.21188
-7.23814
-7.26482
-7.29188
-7.31925
-7.34687
-7.37469
-7.40266
-7.4307
-7.45875
-7.48674
-7.51459
-7.54223
-7.56956
-7.59649
-7.62292
-7.64874
-7.67383
-7.69808
-7.72134
-7.7435
-7.76439
-7.78389
-7.80182
-7.81803
-7.83235
-7.84461
-7.85463
-7.86223
-7.86722
-7.86942
-7.86863
-7.86466
-7.85731
-7.84639
-7.83169
-7.81302
-7.79019
-7.76299
-7.73124
-7.69475
-7.65332
-7.60679
-7.55497
-7.49769
-7.43479
-7.36612
-7.29153
-7.21088
-7.12405
-7.0309
-6.93134
-6.82527
-6.71261
-6.59327
-6.46721
-6.33438
-6.19475
-6.04829
-5.89499
-5.73486
-5.56791
-5.39419
-5.21372
-5.02659
-4.83287
-4.63264
-4.42601
-4.21312
-3.99408
-3.76906
-3.5382
-3.3017
-3.05973
-2.81251
-2.56025
-2.30317
-2.0415
-1.77549
-1.5054
-1.2315
-0.954052
-0.673357
-0.389706
-0.103378
0.185315
0.47605
0.768517
1.06243
1.35751
1.65341
1.9498
2.24636
2.54277
2.83874
3.13394
3.42808
3.72087
4.01201
4.30122
4.58823
4.87277
5.1546
5.43345
5.70911
5.98134
6.24994
6.5147
6.77545
7.03201
7.28423
7.53194
7.77501
8.01333
8.24676
8.47522
8.69858
8.91678
9.12971
9.33731
9.53954
9.73636
9.92774
10.1136
10.294
10.4688
10.6381
10.8018
10.96
11.1128
11.2601
11.4022
11.5389
11.6709
11.7943
11.9225
11.9925
-6.69974
-6.70455
-6.71225
-6.71901
-6.72411
-6.72821
-6.73176
-6.735
-6.73816
-6.74138
-6.7448
-6.74851
-6.7526
-6.75714
-6.76216
-6.76773
-6.77387
-6.78065
-6.78808
-6.7962
-6.80505
-6.81465
-6.82503
-6.83621
-6.84821
-6.86104
-6.87469
-6.88917
-6.90447
-6.92058
-6.93749
-6.95517
-6.97361
-6.99279
-7.01269
-7.0333
-7.05459
-7.07657
-7.0992
-7.12248
-7.14639
-7.1709
-7.19597
-7.22157
-7.24766
-7.27418
-7.30109
-7.32833
-7.35584
-7.38358
-7.41149
-7.4395
-7.46754
-7.49554
-7.52344
-7.55113
-7.57854
-7.60556
-7.6321
-7.65805
-7.68328
-7.70767
-7.7311
-7.75342
-7.77449
-7.79415
-7.81227
-7.82865
-7.84315
-7.85559
-7.86578
-7.87355
-7.87871
-7.88106
-7.88042
-7.87658
-7.86936
-7.85856
-7.84397
-7.8254
-7.80266
-7.77554
-7.74386
-7.70743
-7.66607
-7.61958
-7.5678
-7.51056
-7.44769
-7.37905
-7.30449
-7.22387
-7.13706
-7.04394
-6.94441
-6.83838
-6.72575
-6.60645
-6.48044
-6.34766
-6.20808
-6.06168
-5.90844
-5.74837
-5.5815
-5.40785
-5.22748
-5.04044
-4.84682
-4.6467
-4.4402
-4.22743
-4.00854
-3.78366
-3.55296
-3.31662
-3.07483
-2.8278
-2.57572
-2.31883
-2.05736
-1.79155
-1.52166
-1.24796
-0.970723
-0.690239
-0.406788
-0.120672
0.1678
0.458313
0.750568
1.04428
1.33917
1.63488
1.93108
2.22746
2.5237
2.81949
3.11454
3.40853
3.70118
3.99219
4.28129
4.5682
4.85266
5.13441
5.4132
5.68881
5.96101
6.22959
6.49435
6.7551
7.01169
7.26393
7.51169
7.75483
7.99322
8.22674
8.45529
8.67876
8.89706
9.11012
9.31784
9.52019
9.71714
9.90864
10.0946
10.2751
10.4501
10.6194
10.7832
10.9415
11.0942
11.2413
11.383
11.5189
11.6496
11.7706
11.8962
11.9588
-6.70213
-6.7071
-6.71499
-6.72203
-6.7275
-6.73199
-6.73594
-6.73958
-6.74312
-6.74672
-6.7505
-6.75457
-6.75901
-6.76388
-6.76925
-6.77514
-6.78162
-6.7887
-6.79644
-6.80485
-6.81397
-6.82382
-6.83443
-6.84582
-6.85799
-6.87096
-6.88473
-6.8993
-6.91467
-6.93083
-6.94776
-6.96546
-6.98391
-7.00309
-7.02298
-7.04358
-7.06486
-7.08681
-7.10941
-7.13265
-7.15651
-7.18096
-7.20597
-7.23151
-7.25753
-7.284
-7.31086
-7.33806
-7.36557
-7.39332
-7.42125
-7.44931
-7.47743
-7.50552
-7.53352
-7.56134
-7.58889
-7.61606
-7.64276
-7.66887
-7.69428
-7.71885
-7.74246
-7.76496
-7.78621
-7.80605
-7.82433
-7.84088
-7.85553
-7.86811
-7.87843
-7.88632
-7.89158
-7.89402
-7.89345
-7.88968
-7.8825
-7.87173
-7.85715
-7.83858
-7.81582
-7.78868
-7.75695
-7.72047
-7.67903
-7.63247
-7.58061
-7.52327
-7.46031
-7.39157
-7.3169
-7.23617
-7.14925
-7.05602
-6.95639
-6.85025
-6.73752
-6.61814
-6.49204
-6.35917
-6.21952
-6.07304
-5.91974
-5.75962
-5.5927
-5.41901
-5.23861
-5.05156
-4.85793
-4.65783
-4.45135
-4.23862
-4.01977
-3.79495
-3.56432
-3.32807
-3.08638
-2.83945
-2.58749
-2.33072
-2.06938
-1.80371
-1.53397
-1.26043
-0.983356
-0.703037
-0.419755
-0.13382
0.154459
0.444782
0.736849
1.03038
1.32508
1.62061
1.91662
2.21281
2.50887
2.80449
3.09936
3.3932
3.68569
3.97656
4.26553
4.55232
4.83666
5.1183
5.39701
5.67253
5.94465
6.21317
6.47788
6.7386
6.99516
7.24739
7.49515
7.73831
7.97672
8.21028
8.43887
8.6624
8.88077
9.09389
9.3017
9.50414
9.70117
9.89275
10.0788
10.2594
10.4344
10.6038
10.7676
10.9258
11.0784
11.2253
11.3664
11.5014
11.6307
11.7495
11.8728
11.929
-6.70696
-6.71191
-6.71974
-6.72683
-6.73247
-6.7372
-6.74142
-6.74534
-6.74916
-6.75304
-6.7571
-6.76144
-6.76614
-6.77126
-6.77686
-6.78299
-6.78969
-6.79699
-6.80492
-6.81352
-6.82281
-6.83282
-6.84356
-6.85506
-6.86733
-6.88037
-6.8942
-6.90881
-6.92421
-6.94038
-6.95732
-6.97502
-6.99346
-7.01264
-7.03253
-7.05313
-7.07442
-7.09638
-7.11899
-7.14225
-7.16611
-7.19058
-7.2156
-7.24116
-7.26721
-7.29371
-7.32061
-7.34788
-7.37546
-7.4033
-7.43134
-7.45952
-7.48777
-7.51602
-7.54417
-7.57216
-7.59989
-7.62724
-7.65413
-7.68043
-7.70602
-7.73077
-7.75455
-7.77721
-7.79862
-7.8186
-7.83701
-7.85368
-7.86843
-7.88108
-7.89147
-7.89939
-7.90468
-7.90712
-7.90654
-7.90273
-7.89549
-7.88464
-7.86997
-7.85129
-7.8284
-7.80111
-7.76923
-7.73257
-7.69096
-7.6442
-7.59213
-7.53459
-7.47141
-7.40245
-7.32756
-7.24661
-7.15947
-7.06603
-6.96618
-6.85984
-6.74691
-6.62733
-6.50104
-6.368
-6.22817
-6.08153
-5.92808
-5.76781
-5.60077
-5.42697
-5.24647
-5.05934
-4.86565
-4.66549
-4.45897
-4.24622
-4.02737
-3.80256
-3.57196
-3.33575
-3.09412
-2.84727
-2.59539
-2.33872
-2.07749
-1.81195
-1.54234
-1.26894
-0.992021
-0.711861
-0.428758
-0.143012
0.145071
0.435199
0.727064
1.0204
1.3149
1.61023
1.90603
2.20201
2.49787
2.79329
3.08797
3.38161
3.67393
3.96462
4.25342
4.54004
4.82423
5.10573
5.3843
5.6597
5.9317
6.20012
6.46473
6.72537
6.98186
7.23403
7.48175
7.72487
7.96326
8.19681
8.42541
8.64895
8.86734
9.0805
9.28835
9.49084
9.68792
9.87954
10.0657
10.2463
10.4213
10.5907
10.7545
10.9126
11.065
11.2115
11.352
11.486
11.6139
11.7306
11.8518
11.9025
-6.7139
-6.71869
-6.72622
-6.73316
-6.73881
-6.74362
-6.74796
-6.75204
-6.75603
-6.76007
-6.76429
-6.76878
-6.77362
-6.77888
-6.78461
-6.79085
-6.79764
-6.80503
-6.81305
-6.82172
-6.83107
-6.84114
-6.85193
-6.86346
-6.87575
-6.88882
-6.90265
-6.91727
-6.93266
-6.94882
-6.96575
-6.98344
-7.00188
-7.02106
-7.04097
-7.06159
-7.08291
-7.10492
-7.12759
-7.1509
-7.17484
-7.19937
-7.22447
-7.2501
-7.27623
-7.30283
-7.32985
-7.35725
-7.38498
-7.41297
-7.44117
-7.46952
-7.49794
-7.52636
-7.55471
-7.58288
-7.61078
-7.63832
-7.66538
-7.69184
-7.71759
-7.74248
-7.76639
-7.78917
-7.81067
-7.83073
-7.84919
-7.86588
-7.88064
-7.89328
-7.90363
-7.91149
-7.91669
-7.91902
-7.91831
-7.91435
-7.90694
-7.89589
-7.88101
-7.8621
-7.83897
-7.81142
-7.77927
-7.74233
-7.70042
-7.65336
-7.60099
-7.54313
-7.47964
-7.41036
-7.33516
-7.2539
-7.16646
-7.07272
-6.97258
-6.86595
-6.75275
-6.63291
-6.50637
-6.37309
-6.23303
-6.08618
-5.93252
-5.77208
-5.60487
-5.43092
-5.2503
-5.06305
-4.86926
-4.66903
-4.46246
-4.24968
-4.03081
-3.806
-3.57543
-3.33927
-3.09771
-2.85093
-2.59915
-2.3426
-2.0815
-1.81609
-1.54664
-1.27341
-0.996673
-0.716707
-0.433813
-0.148285
0.139581
0.429481
0.721111
1.01422
1.30849
1.60356
1.89911
2.19484
2.49045
2.78562
3.08006
3.37347
3.66555
3.95602
4.24459
4.53101
4.81499
5.0963
5.37468
5.6499
5.92174
6.19
6.45447
6.71498
6.97135
7.22342
7.47105
7.71409
7.95242
8.18592
8.41448
8.638
8.85637
9.06953
9.27739
9.47989
9.677
9.86864
10.0548
10.2354
10.4104
10.5798
10.7435
10.9015
11.0536
11.1997
11.3395
11.4726
11.5991
11.7137
11.8329
11.8792
-6.72255
-6.72707
-6.73415
-6.74077
-6.74625
-6.75101
-6.75533
-6.75942
-6.76343
-6.7675
-6.77174
-6.77625
-6.78109
-6.78635
-6.79206
-6.79828
-6.80506
-6.81243
-6.82042
-6.82907
-6.83839
-6.84843
-6.85918
-6.87068
-6.88294
-6.89596
-6.90976
-6.92434
-6.9397
-6.95584
-6.97275
-6.99043
-7.00887
-7.02807
-7.04801
-7.06867
-7.09006
-7.11213
-7.13488
-7.15827
-7.1823
-7.20693
-7.23213
-7.25789
-7.28416
-7.31092
-7.3381
-7.36568
-7.39358
-7.42175
-7.45013
-7.47865
-7.50724
-7.53582
-7.56432
-7.59264
-7.62069
-7.64835
-7.67553
-7.70209
-7.72791
-7.75286
-7.7768
-7.79958
-7.82106
-7.84108
-7.85947
-7.87607
-7.89071
-7.90321
-7.91338
-7.92105
-7.92603
-7.92813
-7.92715
-7.92291
-7.9152
-7.90384
-7.88863
-7.86937
-7.84588
-7.81796
-7.78543
-7.74811
-7.70581
-7.65836
-7.6056
-7.54736
-7.48348
-7.41382
-7.33824
-7.25662
-7.16882
-7.07473
-6.97426
-6.86731
-6.7538
-6.63366
-6.50684
-6.3733
-6.233
-6.08592
-5.93207
-5.77145
-5.60407
-5.42999
-5.24924
-5.0619
-4.86804
-4.66776
-4.46116
-4.24837
-4.02952
-3.80476
-3.57425
-3.33818
-3.09671
-2.85006
-2.59842
-2.34202
-2.0811
-1.81589
-1.54665
-1.27364
-0.997135
-0.717429
-0.434802
-0.149543
0.138048
0.427651
0.718991
1.01182
1.30578
1.60052
1.89575
2.19117
2.48646
2.78132
3.07546
3.36856
3.66035
3.95053
4.23883
4.52497
4.80869
5.08974
5.36787
5.64286
5.91448
6.18252
6.4468
6.70712
6.96332
7.21524
7.46273
7.70565
7.94388
8.17729
8.40577
8.62923
8.84756
9.06068
9.26852
9.47102
9.66811
9.85976
10.0459
10.2265
10.4015
10.5708
10.7344
10.8922
11.044
11.1896
11.3288
11.4608
11.586
11.6987
11.816
11.8587
-6.73251
-6.73668
-6.74319
-6.74936
-6.75455
-6.75908
-6.76323
-6.76717
-6.77104
-6.77497
-6.77907
-6.78344
-6.78815
-6.79326
-6.79884
-6.80493
-6.81158
-6.81882
-6.82669
-6.83521
-6.84443
-6.85435
-6.86501
-6.87641
-6.88858
-6.90152
-6.91524
-6.92976
-6.94507
-6.96118
-6.97807
-6.99575
-7.0142
-7.03342
-7.05339
-7.07409
-7.09552
-7.11766
-7.14048
-7.16397
-7.1881
-7.21285
-7.2382
-7.26411
-7.29055
-7.31746
-7.34481
-7.37254
-7.40059
-7.4289
-7.4574
-7.48602
-7.51471
-7.54337
-7.57194
-7.60031
-7.62839
-7.65606
-7.68322
-7.70974
-7.73549
-7.76034
-7.78416
-7.8068
-7.8281
-7.84791
-7.86607
-7.88242
-7.89678
-7.90897
-7.91882
-7.92615
-7.93076
-7.93248
-7.93111
-7.92645
-7.91832
-7.90653
-7.89088
-7.87118
-7.84724
-7.81887
-7.78589
-7.74811
-7.70537
-7.65747
-7.60427
-7.5456
-7.4813
-7.41123
-7.33527
-7.25326
-7.1651
-7.07066
-6.96985
-6.86258
-6.74878
-6.62836
-6.50129
-6.36751
-6.22699
-6.07973
-5.92571
-5.76494
-5.59745
-5.42327
-5.24245
-5.05507
-4.86119
-4.66092
-4.45436
-4.24162
-4.02286
-3.79821
-3.56784
-3.33192
-3.09063
-2.84418
-2.59276
-2.33661
-2.07594
-1.81101
-1.54207
-1.26937
-0.993201
-0.713842
-0.431559
-0.146649
0.140568
0.429783
0.720762
1.01322
1.30677
1.6011
1.89592
2.19094
2.48583
2.7803
3.07405
3.36677
3.65818
3.948
4.23594
4.52173
4.80512
5.08584
5.36366
5.63835
5.90968
6.17745
6.44147
6.70156
6.95753
7.20925
7.45655
7.69931
7.93739
8.17067
8.39904
8.6224
8.84065
9.05371
9.26151
9.46397
9.66104
9.85266
10.0388
10.2194
10.3943
10.5636
10.727
10.8846
11.0361
11.1812
11.3197
11.4507
11.5745
11.6855
11.8009
11.8408
-6.74342
-6.74721
-6.75309
-6.7587
-6.76345
-6.7676
-6.7714
-6.775
-6.77854
-6.78216
-6.78596
-6.79003
-6.79446
-6.7993
-6.80462
-6.81046
-6.81687
-6.82389
-6.83154
-6.83987
-6.8489
-6.85865
-6.86915
-6.88041
-6.89245
-6.90528
-6.91891
-6.93333
-6.94856
-6.9646
-6.98144
-6.99908
-7.0175
-7.03671
-7.05669
-7.07741
-7.09887
-7.12105
-7.14394
-7.16753
-7.19177
-7.21664
-7.2421
-7.26812
-7.29464
-7.32163
-7.34904
-7.3768
-7.40487
-7.43318
-7.46165
-7.49023
-7.51885
-7.54743
-7.5759
-7.60414
-7.63206
-7.65955
-7.6865
-7.71278
-7.73826
-7.76282
-7.78632
-7.80861
-7.82955
-7.84897
-7.86673
-7.88265
-7.89656
-7.9083
-7.91768
-7.92452
-7.92865
-7.92987
-7.92799
-7.92283
-7.91419
-7.90188
-7.88572
-7.86551
-7.84106
-7.8122
-7.77872
-7.74047
-7.69725
-7.6489
-7.59525
-7.53614
-7.47144
-7.40099
-7.32465
-7.24229
-7.15379
-7.05903
-6.95793
-6.8504
-6.73635
-6.61571
-6.48844
-6.35449
-6.21384
-6.06646
-5.91236
-5.75153
-5.58401
-5.40982
-5.22904
-5.0417
-4.84791
-4.64775
-4.44132
-4.22876
-4.01019
-3.78576
-3.55563
-3.31998
-3.07899
-2.83285
-2.58177
-2.32597
-2.06569
-1.80115
-1.53262
-1.26036
-0.984645
-0.705727
-0.423896
-0.13946
0.147258
0.435985
0.726505
1.01847
1.31149
1.6053
1.89961
2.19412
2.48852
2.78249
3.07575
3.368
3.65895
3.9483
4.2358
4.52116
4.80412
5.08444
5.36187
5.63618
5.90715
6.17459
6.43828
6.69807
6.95377
7.20522
7.45229
7.69483
7.93272
8.16583
8.39406
8.61729
8.83544
9.04841
9.25614
9.45855
9.65558
9.84717
10.0333
10.2138
10.3887
10.5579
10.7212
10.8785
11.0296
11.1743
11.312
11.4421
11.5646
11.674
11.7875
11.8254
-6.75547
-6.75888
-6.76412
-6.76909
-6.77324
-6.7768
-6.78002
-6.78305
-6.78605
-6.78914
-6.79243
-6.79603
-6.8
-6.80442
-6.80934
-6.81481
-6.82088
-6.82757
-6.83492
-6.84297
-6.85172
-6.86122
-6.87148
-6.88252
-6.89434
-6.90697
-6.92041
-6.93467
-6.94975
-6.96564
-6.98233
-6.99984
-7.01815
-7.03727
-7.05718
-7.07786
-7.09929
-7.12145
-7.14433
-7.16788
-7.19209
-7.21691
-7.2423
-7.26822
-7.29463
-7.32148
-7.34871
-7.37629
-7.40413
-7.43219
-7.46041
-7.48871
-7.51704
-7.54532
-7.57344
-7.60132
-7.62884
-7.65591
-7.6824
-7.7082
-7.73318
-7.75723
-7.78019
-7.80193
-7.82231
-7.84116
-7.85834
-7.87367
-7.88699
-7.89814
-7.90693
-7.91318
-7.91671
-7.91735
-7.91489
-7.90915
-7.89995
-7.8871
-7.8704
-7.84966
-7.82471
-7.79534
-7.76139
-7.72267
-7.67902
-7.63025
-7.57622
-7.51676
-7.45171
-7.38093
-7.30429
-7.22165
-7.1329
-7.03792
-6.93663
-6.82893
-6.71474
-6.594
-6.46665
-6.33265
-6.19197
-6.04461
-5.89055
-5.7298
-5.56238
-5.38834
-5.20771
-5.02058
-4.82702
-4.62711
-4.42097
-4.20873
-3.99051
-3.76645
-3.53673
-3.30151
-3.06096
-2.8153
-2.56471
-2.30943
-2.04968
-1.7857
-1.51776
-1.24609
-0.970955
-0.69263
-0.411417
-0.127621
0.158447
0.446563
0.736484
1.02779
1.32013
1.61328
1.90695
2.20082
2.49459
2.78794