/*--------------------------------*- C++ -*----------------------------------*\
  =========                 |
  \\      /  F ield         | OpenFOAM: The Open Source CFD Toolbox
   \\    /   O peration     | Website:  https://openfoam.org
    \\  /    A nd           | Version:  11
     \\/     M anipulation  |
\*---------------------------------------------------------------------------*/
FoamFile
{
    format      ascii;
    class       surfaceScalarField;
    location    "287";
    object      phi;
}
// * * * * * * * * * * * * * * * * * * * * * * * * * * * * * * * * * * * * * //

dimensions      [0 3 -1 0 0 0 0];

internalField   nonuniform List<scalar> 
24170
(
3.12889e-06
5.95162e-08
3.04664e-06
8.2248e-08
2.97355e-06
7.30905e-08
2.90491e-06
6.86362e-08
2.84059e-06
6.43184e-08
2.78329e-06
5.73088e-08
2.73398e-06
4.93066e-08
2.69205e-06
4.19306e-08
2.6564e-06
3.56452e-08
2.626e-06
3.0409e-08
2.59985e-06
2.61482e-08
2.57713e-06
2.27221e-08
2.55717e-06
1.99525e-08
2.53943e-06
1.77386e-08
2.52353e-06
1.59079e-08
2.50864e-06
1.48889e-08
2.49514e-06
1.34979e-08
1.75231e-08
2.47762e-06
3.45314e-06
2.36249e-08
3.45702e-06
7.83672e-08
3.45055e-06
7.95584e-08
3.4391e-06
8.0088e-08
3.42432e-06
7.90925e-08
3.40708e-06
7.45542e-08
3.38787e-06
6.8515e-08
3.36736e-06
6.24429e-08
3.34623e-06
5.67751e-08
3.32507e-06
5.15694e-08
3.30436e-06
4.68525e-08
3.28439e-06
4.26935e-08
3.26535e-06
3.89924e-08
3.24728e-06
3.58062e-08
3.23029e-06
3.28969e-08
3.21428e-06
3.09011e-08
3.19958e-06
2.82003e-08
2.92185e-08
3.18789e-06
3.66826e-06
1.78796e-08
3.67919e-06
6.744e-08
3.68542e-06
7.33226e-08
3.68947e-06
7.60423e-08
3.69107e-06
7.74889e-08
3.69012e-06
7.5512e-08
3.68699e-06
7.16412e-08
3.68216e-06
6.72703e-08
3.67603e-06
6.29091e-08
3.66891e-06
5.86856e-08
3.66109e-06
5.46712e-08
3.65282e-06
5.09641e-08
3.64429e-06
4.75283e-08
3.63565e-06
4.44435e-08
3.62699e-06
4.15558e-08
3.61863e-06
3.92608e-08
3.61013e-06
3.67056e-08
3.56468e-08
3.6037e-06
3.92587e-06
1.73937e-08
3.93592e-06
5.73907e-08
3.94258e-06
6.6669e-08
3.94812e-06
7.04949e-08
3.95254e-06
7.30673e-08
3.9555e-06
7.25545e-08
3.95718e-06
6.99603e-08
3.95783e-06
6.66222e-08
3.95763e-06
6.31047e-08
3.95674e-06
5.95764e-08
3.95529e-06
5.61224e-08
3.9534e-06
5.28515e-08
3.95117e-06
4.97595e-08
3.9487e-06
4.69143e-08
3.94603e-06
4.4228e-08
3.94339e-06
4.19016e-08
3.94054e-06
3.95513e-08
3.76645e-08
3.93853e-06
4.20819e-06
1.63261e-08
4.21599e-06
4.95969e-08
4.22169e-06
6.09661e-08
4.2268e-06
6.53859e-08
4.23156e-06
6.83119e-08
4.23554e-06
6.85737e-08
4.23872e-06
6.67806e-08
4.24121e-06
6.41309e-08
4.24312e-06
6.11955e-08
4.24453e-06
5.81603e-08
4.24554e-06
5.51191e-08
4.24621e-06
5.21775e-08
4.24661e-06
4.9357e-08
4.24682e-06
4.67085e-08
4.24686e-06
4.41883e-08
4.24687e-06
4.18863e-08
4.24681e-06
3.96208e-08
3.74647e-08
4.24701e-06
4.51069e-06
1.4724e-08
4.51689e-06
4.33983e-08
4.52214e-06
5.57119e-08
4.52696e-06
6.05644e-08
4.53168e-06
6.35916e-08
4.53594e-06
6.43152e-08
4.53963e-06
6.30949e-08
4.5428e-06
6.09549e-08
4.54554e-06
5.84551e-08
4.54791e-06
5.57929e-08
4.54996e-06
5.30726e-08
4.55174e-06
5.03922e-08
4.55331e-06
4.77907e-08
4.55471e-06
4.53051e-08
4.55598e-06
4.29179e-08
4.55721e-06
4.06598e-08
4.55839e-06
3.84375e-08
3.62115e-08
4.55965e-06
4.83431e-06
1.31358e-08
4.83963e-06
3.80743e-08
4.84476e-06
5.05822e-08
4.84947e-06
5.58555e-08
4.85411e-06
5.89509e-08
4.85844e-06
5.99878e-08
4.86232e-06
5.92105e-08
4.8658e-06
5.7475e-08
4.86894e-06
5.53222e-08
4.87177e-06
5.29607e-08
4.87434e-06
5.05027e-08
4.87669e-06
4.80402e-08
4.87886e-06
4.56223e-08
4.88089e-06
4.32779e-08
4.8828e-06
4.10032e-08
4.88466e-06
3.88018e-08
4.88648e-06
3.66211e-08
3.44066e-08
4.88828e-06
5.18103e-06
1.16846e-08
5.18576e-06
3.33498e-08
5.19076e-06
4.55748e-08
5.19542e-06
5.11979e-08
5.20002e-06
5.43573e-08
5.20439e-06
5.56188e-08
5.20839e-06
5.52023e-08
5.21206e-06
5.381e-08
5.21543e-06
5.19526e-08
5.21854e-06
4.98493e-08
5.22142e-06
4.7618e-08
5.22412e-06
4.53469e-08
5.22665e-06
4.30901e-08
5.22905e-06
4.08741e-08
5.23135e-06
3.8702e-08
5.23359e-06
3.65686e-08
5.23577e-06
3.44418e-08
3.22816e-08
5.23789e-06
5.55268e-06
1.03377e-08
5.55689e-06
2.91434e-08
5.5617e-06
4.07627e-08
5.56632e-06
4.65828e-08
5.57089e-06
4.97852e-08
5.57531e-06
5.12042e-08
5.57942e-06
5.1086e-08
5.58324e-06
4.99961e-08
5.58679e-06
4.84025e-08
5.5901e-06
4.65322e-08
5.59322e-06
4.45064e-08
5.59615e-06
4.24117e-08
5.59894e-06
4.03041e-08
5.6016e-06
3.82112e-08
5.60416e-06
3.61405e-08
5.60664e-06
3.40872e-08
5.60905e-06
3.20315e-08
2.99535e-08
5.61138e-06
5.95104e-06
9.07848e-09
5.95479e-06
2.53916e-08
5.95937e-06
3.61849e-08
5.96393e-06
4.20211e-08
5.96848e-06
4.52307e-08
5.97294e-06
4.67507e-08
5.97715e-06
4.68723e-08
5.9811e-06
4.60483e-08
5.98481e-06
4.46944e-08
5.9883e-06
4.30393e-08
5.9916e-06
4.12063e-08
5.99473e-06
3.92802e-08
5.99772e-06
3.73177e-08
6.00058e-06
3.53486e-08
6.00334e-06
3.33844e-08
6.006e-06
3.14247e-08
6.00857e-06
2.94589e-08
2.74844e-08
6.01104e-06
6.37798e-06
7.90871e-09
6.38135e-06
2.20268e-08
6.38568e-06
3.18522e-08
6.39017e-06
3.75298e-08
6.3947e-06
4.06998e-08
6.39918e-06
4.22707e-08
6.40348e-06
4.25737e-08
6.40755e-06
4.19774e-08
6.41141e-06
4.08409e-08
6.41506e-06
3.9386e-08
6.41853e-06
3.77366e-08
6.42183e-06
3.59753e-08
6.42499e-06
3.41582e-08
6.42802e-06
3.23178e-08
6.43094e-06
3.04695e-08
6.43375e-06
2.8618e-08
6.43645e-06
2.67605e-08
2.49066e-08
6.43902e-06
5.74176e-06
6.98275e-09
5.74434e-06
1.94433e-08
5.74782e-06
2.83798e-08
5.75155e-06
3.37977e-08
5.75536e-06
3.68923e-08
5.75915e-06
3.84728e-08
5.76284e-06
3.8885e-08
5.76637e-06
3.84494e-08
5.76973e-06
3.74791e-08
5.77294e-06
3.61828e-08
5.77599e-06
3.46825e-08
5.77891e-06
3.30586e-08
5.7817e-06
3.13668e-08
5.78438e-06
2.96407e-08
5.78695e-06
2.78989e-08
5.78941e-06
2.61506e-08
5.79178e-06
2.43974e-08
2.26578e-08
5.79403e-06
6.99914e-06
5.999e-09
7.00187e-06
1.67096e-08
7.00564e-06
2.46124e-08
7.00981e-06
2.96264e-08
7.01414e-06
3.25669e-08
7.0185e-06
3.41128e-08
7.02278e-06
3.46051e-08
7.02691e-06
3.43184e-08
7.03087e-06
3.35161e-08
7.03467e-06
3.23884e-08
7.0383e-06
3.10523e-08
7.04177e-06
2.95847e-08
7.0451e-06
2.80394e-08
7.04829e-06
2.64515e-08
7.05134e-06
2.4842e-08
7.05427e-06
2.32244e-08
7.05706e-06
2.16043e-08
2.00066e-08
7.05972e-06
8.53188e-06
4.96528e-09
8.53474e-06
1.3853e-08
8.53877e-06
2.05778e-08
8.54338e-06
2.50234e-08
8.54824e-06
2.77058e-08
8.5532e-06
2.9154e-08
8.55812e-06
2.96808e-08
8.56292e-06
2.95172e-08
8.56756e-06
2.88763e-08
8.57203e-06
2.79226e-08
8.57632e-06
2.6764e-08
8.58043e-06
2.54724e-08
8.58437e-06
2.40982e-08
8.58814e-06
2.26764e-08
8.59176e-06
2.12301e-08
8.59521e-06
1.97755e-08
8.59849e-06
1.83219e-08
1.68971e-08
8.6016e-06
1.04003e-05
3.89099e-09
1.04033e-05
1.0893e-08
1.04075e-05
1.62984e-08
1.04126e-05
1.99981e-08
1.0418e-05
2.22934e-08
1.04236e-05
2.35604e-08
1.04292e-05
2.40598e-08
1.04347e-05
2.39785e-08
1.04401e-05
2.34811e-08
1.04453e-05
2.27006e-08
1.04504e-05
2.17305e-08
1.04552e-05
2.06344e-08
1.04599e-05
1.94581e-08
1.04643e-05
1.8234e-08
1.04685e-05
1.69858e-08
1.04726e-05
1.57309e-08
1.04764e-05
1.44801e-08
1.32619e-08
1.04801e-05
1.26779e-05
2.78111e-09
1.2681e-05
7.8243e-09
1.26855e-05
1.17728e-08
1.26909e-05
1.45456e-08
1.26969e-05
1.63035e-08
1.27032e-05
1.7285e-08
1.27096e-05
1.76797e-08
1.27159e-05
1.76271e-08
1.27222e-05
1.72445e-08
1.27283e-05
1.66299e-08
1.27341e-05
1.58561e-08
1.27398e-05
1.4975e-08
1.27452e-05
1.40242e-08
1.27504e-05
1.3032e-08
1.27554e-05
1.20194e-08
1.27601e-05
1.10033e-08
1.27646e-05
9.99382e-09
9.01772e-09
1.27688e-05
1.54543e-05
1.62516e-09
1.54576e-05
4.60126e-09
1.54624e-05
6.94446e-09
1.54683e-05
8.6072e-09
1.5475e-05
9.66402e-09
1.5482e-05
1.02393e-08
1.54892e-05
1.04425e-08
1.54965e-05
1.03577e-08
1.55037e-05
1.00553e-08
1.55107e-05
9.59525e-09
1.55176e-05
9.02462e-09
1.55242e-05
8.37835e-09
1.55305e-05
7.68281e-09
1.55366e-05
6.95852e-09
1.55424e-05
6.22147e-09
1.55479e-05
5.48491e-09
1.55531e-05
4.75695e-09
4.06022e-09
1.55581e-05
1.88389e-05
3.83306e-10
1.88424e-05
1.09997e-09
1.88477e-05
1.64039e-09
1.88543e-05
1.99311e-09
1.88618e-05
2.17856e-09
1.88698e-05
2.22383e-09
1.88781e-05
2.15084e-09
1.88865e-05
1.97943e-09
1.88948e-05
1.72981e-09
1.8903e-05
1.42057e-09
1.89109e-05
1.06723e-09
1.89186e-05
6.82796e-10
1.8926e-05
2.78373e-10
1.89331e-05
-1.36448e-10
1.89399e-05
-5.53525e-10
1.89463e-05
-9.65453e-10
1.89525e-05
-1.36797e-09
-1.74408e-09
1.89583e-05
2.29648e-05
-1.04528e-09
2.29688e-05
-2.9682e-09
2.2975e-05
-4.55825e-09
2.29828e-05
-5.77212e-09
2.29916e-05
-6.62989e-09
2.3001e-05
-7.21842e-09
2.30108e-05
-7.62498e-09
2.30207e-05
-7.90416e-09
2.30305e-05
-8.09256e-09
2.30402e-05
-8.22125e-09
2.30496e-05
-8.31388e-09
2.30586e-05
-8.38471e-09
2.30673e-05
-8.44163e-09
2.30757e-05
-8.48876e-09
2.30837e-05
-8.52818e-09
2.30913e-05
-8.55991e-09
2.30985e-05
-8.5847e-09
-8.59225e-09
2.31053e-05
1.68118e-05
-2.16639e-09
1.6815e-05
-6.13554e-09
1.68198e-05
-9.38287e-09
1.68258e-05
-1.17622e-08
1.68325e-05
-1.33323e-08
1.68396e-05
-1.43216e-08
1.68469e-05
-1.49174e-08
1.68542e-05
-1.52236e-08
1.68615e-05
-1.53192e-08
1.68685e-05
-1.5276e-08
1.68753e-05
-1.51467e-08
1.68819e-05
-1.49642e-08
1.68882e-05
-1.4749e-08
1.68943e-05
-1.45152e-08
1.69e-05
-1.42712e-08
1.69055e-05
-1.40218e-08
1.69106e-05
-1.37703e-08
-1.35107e-08
1.69156e-05
1.46356e-05
-3.24301e-09
1.46387e-05
-9.21863e-09
1.46434e-05
-1.40924e-08
1.46492e-05
-1.74991e-08
1.46555e-05
-1.96106e-08
1.4662e-05
-2.08769e-08
1.46687e-05
-2.15683e-08
1.46753e-05
-2.18207e-08
1.46817e-05
-2.17652e-08
1.46879e-05
-2.15182e-08
1.4694e-05
-2.11552e-08
1.46997e-05
-2.0721e-08
1.47052e-05
-2.02457e-08
1.47104e-05
-1.97503e-08
1.47154e-05
-1.92484e-08
1.47201e-05
-1.87473e-08
1.47246e-05
-1.8252e-08
-1.77588e-08
1.47289e-05
1.27411e-05
-4.25106e-09
1.27443e-05
-1.23422e-08
1.27491e-05
-1.89186e-08
1.27547e-05
-2.31394e-08
1.27607e-05
-2.55837e-08
1.27669e-05
-2.70263e-08
1.2773e-05
-2.77299e-08
1.2779e-05
-2.78442e-08
1.27848e-05
-2.75761e-08
1.27904e-05
-2.70908e-08
1.27957e-05
-2.64781e-08
1.28008e-05
-2.57893e-08
1.28056e-05
-2.50616e-08
1.28102e-05
-2.43205e-08
1.28145e-05
-2.35817e-08
1.28186e-05
-2.28533e-08
1.28225e-05
-2.21404e-08
-2.14403e-08
1.28262e-05
1.10918e-05
-5.0919e-09
1.1095e-05
-1.55606e-08
1.11001e-05
-2.40418e-08
1.11057e-05
-2.87593e-08
1.11115e-05
-3.13124e-08
1.11173e-05
-3.28315e-08
1.1123e-05
-3.34483e-08
1.11285e-05
-3.33447e-08
1.11337e-05
-3.28232e-08
1.11387e-05
-3.20812e-08
1.11435e-05
-3.12102e-08
1.11479e-05
-3.0267e-08
1.11522e-05
-2.92946e-08
1.11562e-05
-2.83217e-08
1.11599e-05
-2.73636e-08
1.11635e-05
-2.64284e-08
1.11669e-05
-2.55201e-08
-2.46366e-08
1.11701e-05
9.65581e-06
-5.69048e-09
9.65924e-06
-1.89866e-08
9.66458e-06
-2.93851e-08
9.67008e-06
-3.42523e-08
9.67563e-06
-3.6864e-08
9.68118e-06
-3.83824e-08
9.6865e-06
-3.87713e-08
9.69152e-06
-3.83618e-08
9.69625e-06
-3.75564e-08
9.70072e-06
-3.65492e-08
9.70493e-06
-3.54192e-08
9.70889e-06
-3.42257e-08
9.71261e-06
-3.30165e-08
9.71611e-06
-3.18209e-08
9.7194e-06
-3.06541e-08
9.72249e-06
-2.95233e-08
9.7254e-06
-2.84306e-08
-2.73723e-08
9.72814e-06
8.4053e-06
-5.63605e-09
8.40963e-06
-2.33223e-08
8.41487e-06
-3.462e-08
8.41989e-06
-3.92754e-08
8.42525e-06
-4.22229e-08
8.43065e-06
-4.37821e-08
8.43573e-06
-4.38475e-08
8.44042e-06
-4.30578e-08
8.44478e-06
-4.19149e-08
8.44883e-06
-4.05949e-08
8.45257e-06
-3.91678e-08
8.45604e-06
-3.76957e-08
8.45926e-06
-3.62283e-08
8.46223e-06
-3.47933e-08
8.46498e-06
-3.34059e-08
8.46753e-06
-3.20722e-08
8.46989e-06
-3.07944e-08
-2.95688e-08
8.47209e-06
7.3145e-06
-2.85238e-09
7.32119e-06
-3.00106e-08
7.32674e-06
-4.01712e-08
7.33168e-06
-4.42197e-08
7.33707e-06
-4.76142e-08
7.34239e-06
-4.90955e-08
7.34726e-06
-4.8717e-08
7.35166e-06
-4.74617e-08
7.35563e-06
-4.58836e-08
7.35918e-06
-4.41407e-08
7.36232e-06
-4.23142e-08
7.3651e-06
-4.04766e-08
7.36756e-06
-3.86804e-08
7.36971e-06
-3.695e-08
7.37161e-06
-3.53002e-08
7.37327e-06
-3.37343e-08
7.37473e-06
-3.22524e-08
-3.08452e-08
7.376e-06
6.36243e-06
4.78058e-09
6.37189e-06
-3.94727e-08
6.37932e-06
-4.75943e-08
6.38595e-06
-5.08534e-08
6.39223e-06
-5.38908e-08
6.39753e-06
-5.44027e-08
6.40182e-06
-5.30044e-08
6.40529e-06
-5.09348e-08
6.40809e-06
-4.86758e-08
6.41026e-06
-4.63171e-08
6.41189e-06
-4.39381e-08
6.41303e-06
-4.16152e-08
6.41374e-06
-3.93988e-08
6.4141e-06
-3.73079e-08
6.41416e-06
-3.53547e-08
6.41396e-06
-3.35373e-08
6.41356e-06
-3.1856e-08
-3.02898e-08
6.41301e-06
5.54129e-06
8.95205e-09
5.55032e-06
-4.85018e-08
5.55833e-06
-5.56063e-08
5.56604e-06
-5.85573e-08
5.57249e-06
-6.0348e-08
5.57681e-06
-5.87235e-08
5.57905e-06
-5.52403e-08
5.5796e-06
-5.14882e-08
5.57884e-06
-4.79162e-08
5.57705e-06
-4.4525e-08
5.57445e-06
-4.13375e-08
5.57123e-06
-3.83945e-08
5.56754e-06
-3.5704e-08
5.56349e-06
-3.326e-08
5.55919e-06
-3.10543e-08
5.55473e-06
-2.90758e-08
5.55019e-06
-2.73248e-08
-2.5748e-08
5.54565e-06
4.86019e-06
-2.3631e-08
4.86538e-06
-5.36931e-08
4.86523e-06
-5.54568e-08
4.86217e-06
-5.54928e-08
4.85699e-06
-5.51733e-08
4.84948e-06
-5.12176e-08
4.83979e-06
-4.55434e-08
4.82839e-06
-4.00904e-08
4.81581e-06
-3.53333e-08
4.80252e-06
-3.12405e-08
4.78892e-06
-2.77327e-08
4.77527e-06
-2.47501e-08
4.76178e-06
-2.22127e-08
4.74858e-06
-2.00549e-08
4.73574e-06
-1.82208e-08
4.72335e-06
-1.66867e-08
4.71152e-06
-1.54892e-08
-1.51393e-08
4.70091e-06
4.17905e-06
4.12535e-06
4.0699e-06
4.0144e-06
3.95923e-06
3.90801e-06
3.86247e-06
3.82238e-06
3.78704e-06
3.7558e-06
3.72807e-06
3.70332e-06
3.68111e-06
3.66105e-06
3.64283e-06
3.62615e-06
3.61066e-06
3.59552e-06
1.07663e-08
-1.0803e-08
2.39193e-08
-1.31904e-08
3.36044e-08
-9.74457e-09
3.83189e-08
-4.74405e-09
3.78242e-08
4.33885e-10
3.2731e-08
5.06265e-09
2.38815e-08
8.78197e-09
1.22592e-08
1.15926e-08
-1.47043e-09
1.366e-08
-1.67449e-08
1.5253e-08
-3.33711e-08
1.65644e-08
-5.10796e-08
1.76956e-08
-6.98661e-08
1.87317e-08
-8.95951e-08
1.97202e-08
-1.10321e-07
2.06765e-08
-1.31941e-07
2.16105e-08
-1.54505e-07
2.25195e-08
-1.77929e-07
2.34064e-08
-2.02245e-07
2.42664e-08
-2.2739e-07
2.5102e-08
-2.53352e-07
2.59093e-08
-2.80122e-07
2.6688e-08
-3.07625e-07
2.74393e-08
-3.35915e-07
2.81655e-08
-3.64859e-07
2.88807e-08
-3.946e-07
2.95971e-08
-4.2498e-07
3.03456e-08
-4.56237e-07
3.1141e-08
-4.88169e-07
3.19365e-08
-5.20728e-07
3.25178e-08
-5.53846e-07
3.31706e-08
-5.87499e-07
3.36873e-08
-6.20941e-07
3.35144e-08
-6.54446e-07
3.35805e-08
-6.89587e-07
3.52066e-08
-7.26604e-07
3.70959e-08
-7.64997e-07
3.84395e-08
-8.04938e-07
3.99968e-08
-8.47871e-07
4.29538e-08
-8.92994e-07
4.51505e-08
-9.3748e-07
4.44866e-08
-9.86002e-07
4.85345e-08
-1.0298e-06
4.37911e-08
-1.06414e-06
3.43464e-08
-1.10313e-06
3.89749e-08
-1.14474e-06
4.16121e-08
-1.18775e-06
4.30004e-08
-1.23134e-06
4.35958e-08
-1.27517e-06
4.38159e-08
-1.319e-06
4.38349e-08
-1.36275e-06
4.37437e-08
-1.40633e-06
4.35841e-08
-1.44971e-06
4.33797e-08
-1.49285e-06
4.31441e-08
-1.53574e-06
4.28836e-08
-1.57835e-06
4.26029e-08
-1.62065e-06
4.23027e-08
-1.66264e-06
4.1984e-08
-1.70429e-06
4.16454e-08
-1.74558e-06
4.12863e-08
-1.78649e-06
4.09045e-08
-1.82699e-06
4.04987e-08
-1.86707e-06
4.00664e-08
-1.90668e-06
3.9606e-08
-1.9458e-06
3.91153e-08
-1.9844e-06
3.85926e-08
-2.02244e-06
3.8036e-08
-2.05989e-06
3.7444e-08
-2.09671e-06
3.68151e-08
-2.13286e-06
3.61479e-08
-2.16831e-06
3.54415e-08
-2.20301e-06
3.46948e-08
-2.23692e-06
3.3907e-08
-2.27e-06
3.30774e-08
-2.30221e-06
3.22058e-08
-2.33351e-06
3.12915e-08
-2.36385e-06
3.0335e-08
-2.3932e-06
2.93358e-08
-2.4215e-06
2.82946e-08
-2.44871e-06
2.72111e-08
-2.47481e-06
2.60861e-08
-2.49973e-06
2.49197e-08
-2.52345e-06
2.37129e-08
-2.54592e-06
2.24653e-08
-2.56711e-06
2.11781e-08
-2.58696e-06
1.98509e-08
-2.60545e-06
1.84848e-08
-2.62253e-06
1.70786e-08
-2.63817e-06
1.56318e-08
-2.65231e-06
1.41417e-08
-2.66491e-06
1.26039e-08
-2.67592e-06
1.10132e-08
-2.68529e-06
9.36391e-09
-2.69294e-06
7.64813e-09
-2.6988e-06
5.8523e-09
-2.70276e-06
3.95801e-09
-2.70473e-06
1.96348e-09
-2.70469e-06
-5.07386e-11
-2.70282e-06
-1.87357e-09
-2.69933e-06
-3.50147e-09
-2.69425e-06
-5.08933e-09
-2.68759e-06
-6.66589e-09
-2.67936e-06
-8.24474e-09
-2.66954e-06
-9.82824e-09
-2.65814e-06
-1.14151e-08
-2.64516e-06
-1.30048e-08
-2.63058e-06
-1.45943e-08
-2.61441e-06
-1.61832e-08
-2.59665e-06
-1.77684e-08
-2.57732e-06
-1.93495e-08
-2.5564e-06
-2.09235e-08
-2.53392e-06
-2.24901e-08
-2.50989e-06
-2.40459e-08
-2.4843e-06
-2.55908e-08
-2.45719e-06
-2.71212e-08
-2.42856e-06
-2.86373e-08
-2.39842e-06
-3.01351e-08
-2.36681e-06
-3.16146e-08
-2.33374e-06
-3.30722e-08
-2.29923e-06
-3.45085e-08
-2.26331e-06
-3.59209e-08
-2.22601e-06
-3.7309e-08
-2.18735e-06
-3.86685e-08
-2.14736e-06
-3.99988e-08
-2.10607e-06
-4.1295e-08
-2.06351e-06
-4.25586e-08
-2.01972e-06
-4.37866e-08
-1.97474e-06
-4.49813e-08
-1.92859e-06
-4.61386e-08
-1.88132e-06
-4.72601e-08
-1.83295e-06
-4.83435e-08
-1.78355e-06
-4.93869e-08
-1.73314e-06
-5.03814e-08
-1.68177e-06
-5.13345e-08
-1.62949e-06
-5.22459e-08
-1.57634e-06
-5.31131e-08
-1.52236e-06
-5.39315e-08
-1.4676e-06
-5.47028e-08
-1.41212e-06
-5.54256e-08
-1.35596e-06
-5.61003e-08
-1.29917e-06
-5.67263e-08
-1.24181e-06
-5.73032e-08
-1.18393e-06
-5.78315e-08
-1.12557e-06
-5.83104e-08
-1.06678e-06
-5.87407e-08
-1.00762e-06
-5.91214e-08
-9.4813e-07
-5.94539e-08
-8.88359e-07
-5.97377e-08
-8.28357e-07
-5.99747e-08
-7.6817e-07
-6.01647e-08
-7.07842e-07
-6.03103e-08
-6.47419e-07
-6.04113e-08
-5.86942e-07
-6.04706e-08
-5.26452e-07
-6.04884e-08
-4.6599e-07
-6.04672e-08
-4.05592e-07
-6.04072e-08
-3.45297e-07
-6.03104e-08
-2.8514e-07
-6.01762e-08
-2.25158e-07
-6.00067e-08
-1.65386e-07
-5.98011e-08
-1.05853e-07
-5.95675e-08
-4.66048e-08
-5.92857e-08
1.22705e-08
-5.89173e-08
7.08061e-08
-5.85786e-08
1.28991e-07
-5.82305e-08
1.86731e-07
-5.77863e-08
2.44029e-07
-5.73472e-08
3.00895e-07
-5.69156e-08
3.57328e-07
-5.64857e-08
4.1332e-07
-5.60452e-08
4.68843e-07
-5.55782e-08
5.23845e-07
-5.50588e-08
5.78232e-07
-5.44447e-08
6.31831e-07
-5.36595e-08
6.84329e-07
-5.25589e-08
7.35108e-07
-5.0841e-08
7.82855e-07
-4.78085e-08
8.24403e-07
-4.1608e-08
8.51616e-07
-2.72699e-08
1.78799e-08
8.33685e-07
9.07178e-09
-1.99029e-08
1.24204e-08
-1.65656e-08
1.11082e-08
-8.46272e-09
6.59968e-09
-2.52736e-10
-4.49354e-10
7.45525e-09
-9.79833e-09
1.43948e-08
-2.1437e-08
2.03919e-08
-3.52611e-08
2.54008e-08
-5.1138e-08
2.95093e-08
-6.87937e-08
3.28951e-08
-8.80108e-08
3.57556e-08
-1.08588e-07
3.82616e-08
-1.30421e-07
4.054e-08
-1.53388e-07
4.26767e-08
-1.77456e-07
4.4722e-08
-2.02564e-07
4.67065e-08
-2.28711e-07
4.86456e-08
-2.5587e-07
5.05503e-08
-2.84054e-07
5.2427e-08
-3.1326e-07
5.42817e-08
-3.43498e-07
5.61184e-08
-3.74795e-07
5.79418e-08
-4.07149e-07
5.97559e-08
-4.40614e-07
6.15637e-08
-4.75146e-07
6.33705e-08
-5.10802e-07
6.51811e-08
-5.47499e-07
6.70105e-08
-5.85271e-07
6.88595e-08
-6.24033e-07
7.0694e-08
-6.63977e-07
7.245e-08
-7.04917e-07
7.41372e-08
-7.46901e-07
7.57015e-08
-7.90422e-07
7.70801e-08
-8.35323e-07
7.8531e-08
-8.80491e-07
8.04207e-08
-9.25825e-07
8.24779e-08
-9.71625e-07
8.42732e-08
-1.01758e-06
8.59812e-08
-1.06229e-06
8.76846e-08
-1.10599e-06
8.8862e-08
-1.15079e-06
8.92887e-08
-1.1919e-06
8.96444e-08
-1.23555e-06
8.74372e-08
-1.2853e-06
8.4093e-08
-1.32993e-06
8.35933e-08
-1.37197e-06
8.36593e-08
-1.41268e-06
8.37071e-08
-1.45267e-06
8.35801e-08
-1.49215e-06
8.3292e-08
-1.5312e-06
8.28877e-08
-1.56986e-06
8.24029e-08
-1.60814e-06
8.18609e-08
-1.64603e-06
8.12755e-08
-1.68354e-06
8.06549e-08
-1.72066e-06
8.00025e-08
-1.75738e-06
7.93198e-08
-1.79369e-06
7.86058e-08
-1.82956e-06
7.78586e-08
-1.865e-06
7.70753e-08
-1.89997e-06
7.62528e-08
-1.93445e-06
7.53875e-08
-1.96843e-06
7.4476e-08
-2.00189e-06
7.35144e-08
-2.03478e-06
7.24993e-08
-2.0671e-06
7.14273e-08
-2.0988e-06
7.02953e-08
-2.12987e-06
6.91004e-08
-2.16027e-06
6.784e-08
-2.18997e-06
6.65118e-08
-2.21894e-06
6.51137e-08
-2.24715e-06
6.3644e-08
-2.27456e-06
6.21012e-08
-2.30114e-06
6.04843e-08
-2.32686e-06
5.87922e-08
-2.35168e-06
5.70245e-08
-2.37557e-06
5.51808e-08
-2.3985e-06
5.32612e-08
-2.42044e-06
5.12659e-08
-2.44134e-06
4.91954e-08
-2.46118e-06
4.70501e-08
-2.47993e-06
4.4831e-08
-2.49756e-06
4.25388e-08
-2.51402e-06
4.01747e-08
-2.5293e-06
3.77395e-08
-2.54336e-06
3.52346e-08
-2.55618e-06
3.26609e-08
-2.56771e-06
3.00197e-08
-2.57795e-06
2.73117e-08
-2.58685e-06
2.4538e-08
-2.59441e-06
2.16982e-08
-2.6006e-06
1.87923e-08
-2.60541e-06
1.58212e-08
-2.60883e-06
1.27869e-08
-2.61088e-06
9.69297e-09
-2.61158e-06
6.54582e-09
-2.61099e-06
3.36384e-09
-2.60922e-06
1.88205e-10
-2.60634e-06
-2.93149e-09
-2.60221e-06
-6.01292e-09
-2.59661e-06
-9.10216e-09
-2.5895e-06
-1.22041e-08
-2.58086e-06
-1.53177e-08
-2.57067e-06
-1.84448e-08
-2.55892e-06
-2.15833e-08
-2.54562e-06
-2.47305e-08
-2.53075e-06
-2.78827e-08
-2.51432e-06
-3.10362e-08
-2.49632e-06
-3.41875e-08
-2.47677e-06
-3.73329e-08
-2.45566e-06
-4.04692e-08
-2.433e-06
-4.35926e-08
-2.40879e-06
-4.66999e-08
-2.38306e-06
-4.97872e-08
-2.3558e-06
-5.28514e-08
-2.32704e-06
-5.58884e-08
-2.29678e-06
-5.88953e-08
-2.26505e-06
-6.18678e-08
-2.23187e-06
-6.48024e-08
-2.19724e-06
-6.76955e-08
-2.16121e-06
-7.05449e-08
-2.12378e-06
-7.33473e-08
-2.085e-06
-7.60996e-08
-2.04488e-06
-7.87967e-08
-2.00345e-06
-8.14342e-08
-1.96074e-06
-8.40072e-08
-1.91679e-06
-8.65136e-08
-1.87162e-06
-8.89508e-08
-1.82528e-06
-9.13186e-08
-1.7778e-06
-9.36144e-08
-1.72922e-06
-9.5838e-08
-1.67956e-06
-9.79865e-08
-1.62888e-06
-1.00053e-07
-1.57722e-06
-1.02027e-07
-1.52462e-06
-1.03916e-07
-1.47113e-06
-1.05722e-07
-1.41678e-06
-1.07438e-07
-1.36163e-06
-1.0906e-07
-1.30571e-06
-1.10585e-07
-1.24909e-06
-1.12015e-07
-1.19181e-06
-1.13348e-07
-1.13392e-06
-1.14583e-07
-1.07548e-06
-1.15721e-07
-1.01652e-06
-1.1676e-07
-9.57104e-07
-1.17702e-07
-8.97277e-07
-1.18544e-07
-8.37089e-07
-1.19289e-07
-7.76588e-07
-1.19936e-07
-7.15824e-07
-1.20486e-07
-6.54843e-07
-1.20942e-07
-5.93692e-07
-1.21305e-07
-5.32417e-07
-1.21577e-07
-4.71061e-07
-1.21762e-07
-4.09667e-07
-1.21862e-07
-3.48276e-07
-1.2188e-07
-2.86927e-07
-1.21818e-07
-2.25659e-07
-1.21681e-07
-1.64508e-07
-1.21469e-07
-1.03509e-07
-1.21186e-07
-4.26946e-08
-1.20833e-07
1.7906e-08
-1.20416e-07
7.82655e-08
-1.19943e-07
1.38364e-07
-1.19402e-07
1.98198e-07
-1.1877e-07
2.5766e-07
-1.18061e-07
3.1669e-07
-1.17282e-07
3.75333e-07
-1.16452e-07
4.33582e-07
-1.15619e-07
4.91432e-07
-1.14791e-07
5.48873e-07
-1.13954e-07
6.05891e-07
-1.13091e-07
6.62452e-07
-1.12168e-07
7.185e-07
-1.11139e-07
7.7394e-07
-1.09916e-07
8.28599e-07
-1.08353e-07
8.82175e-07
-1.06169e-07
9.34127e-07
-1.02829e-07
9.8339e-07
-9.71076e-08
1.02829e-06
-8.654e-08
1.06546e-06
-6.4474e-08
-1.20396e-08
1.09534e-06
6.4564e-10
-2.0568e-08
-4.88379e-09
-1.10541e-08
-1.31265e-08
-2.38144e-10
-2.30879e-08
9.69938e-09
-3.44313e-08
1.87839e-08
-4.70747e-08
2.70293e-08
-6.10968e-08
3.43999e-08
-7.65847e-08
4.08802e-08
-9.36081e-08
4.65183e-08
-1.12145e-07
5.14241e-08
-1.32144e-07
5.57411e-08
-1.53506e-07
5.96161e-08
-1.76155e-07
6.31751e-08
-2.00002e-07
6.65169e-08
-2.25004e-07
6.97107e-08
-2.5111e-07
7.28053e-08
-2.78308e-07
7.58316e-08
-3.06578e-07
7.88122e-08
-3.35923e-07
8.17611e-08
-3.66344e-07
8.46899e-08
-3.97844e-07
8.76061e-08
-4.30437e-07
9.05142e-08
-4.64114e-07
9.34157e-08
-4.98892e-07
9.63086e-08
-5.34727e-07
9.91863e-08
-5.71619e-07
1.02035e-07
-6.09454e-07
1.04833e-07
-6.4817e-07
1.07549e-07
-6.87611e-07
1.10137e-07
-7.27711e-07
1.12548e-07
-7.68296e-07
1.14743e-07
-8.09258e-07
1.16683e-07
-8.5052e-07
1.18371e-07
-8.91898e-07
1.19939e-07
-9.32922e-07
1.21472e-07
-9.73359e-07
1.22944e-07
-1.01328e-06
1.24213e-07
-1.05252e-06
1.25231e-07
-1.09076e-06
1.25936e-07
-1.12811e-06
1.26213e-07
-1.16479e-06
1.25965e-07
-1.20049e-06
1.25334e-07
-1.23704e-06
1.23984e-07
-1.27519e-06
1.22247e-07
-1.31262e-06
1.21016e-07
-1.34912e-06
1.20156e-07
-1.38486e-06
1.19452e-07
-1.42006e-06
1.18772e-07
-1.45483e-06
1.18066e-07
-1.48926e-06
1.17319e-07
-1.52339e-06
1.1653e-07
-1.55723e-06
1.15702e-07
-1.59079e-06
1.14837e-07
-1.62407e-06
1.13934e-07
-1.65707e-06
1.12993e-07
-1.68976e-06
1.12011e-07
-1.72214e-06
1.10985e-07
-1.75419e-06
1.09909e-07
-1.7859e-06
1.08779e-07
-1.81724e-06
1.07591e-07
-1.84819e-06
1.06338e-07
-1.87873e-06
1.05016e-07
-1.90884e-06
1.03619e-07
-1.93849e-06
1.02143e-07
-1.96764e-06
1.00583e-07
-1.99629e-06
9.89349e-08
-2.02438e-06
9.71944e-08
-2.0519e-06
9.53582e-08
-2.07882e-06
9.3423e-08
-2.10509e-06
9.13861e-08
-2.1307e-06
8.92452e-08
-2.1556e-06
8.69981e-08
-2.17976e-06
8.46435e-08
-2.20315e-06
8.21801e-08
-2.22573e-06
7.96071e-08
-2.24748e-06
7.69243e-08
-2.26835e-06
7.41316e-08
-2.28832e-06
7.12294e-08
-2.30734e-06
6.82183e-08
-2.3254e-06
6.50992e-08
-2.34244e-06
6.18735e-08
-2.35845e-06
5.85426e-08
-2.37338e-06
5.51082e-08
-2.38722e-06
5.15721e-08
-2.39992e-06
4.79365e-08
-2.41147e-06
4.42038e-08
-2.42183e-06
4.03765e-08
-2.43098e-06
3.64573e-08
-2.43889e-06
3.24492e-08
-2.44554e-06
2.83553e-08
-2.45093e-06
2.41792e-08
-2.45504e-06
1.99259e-08
-2.45785e-06
1.56027e-08
-2.45938e-06
1.12187e-08
-2.45963e-06
6.78632e-09
-2.45859e-06
2.32357e-09
-2.45626e-06
-2.14672e-09
-2.45258e-06
-6.61544e-09
-2.44749e-06
-1.11059e-08
-2.44096e-06
-1.56381e-08
-2.43296e-06
-2.02064e-08
-2.42348e-06
-2.48048e-08
-2.4125e-06
-2.94285e-08
-2.40002e-06
-3.40716e-08
-2.38603e-06
-3.87291e-08
-2.37053e-06
-4.33948e-08
-2.35351e-06
-4.80634e-08
-2.33497e-06
-5.27291e-08
-2.31493e-06
-5.7387e-08
-2.29337e-06
-6.20313e-08
-2.27031e-06
-6.66574e-08
-2.24575e-06
-7.12593e-08
-2.21971e-06
-7.58324e-08
-2.1922e-06
-8.03709e-08
-2.16322e-06
-8.487e-08
-2.13279e-06
-8.93241e-08
-2.10093e-06
-9.37279e-08
-2.06766e-06
-9.80757e-08
-2.03299e-06
-1.02363e-07
-1.99695e-06
-1.06585e-07
-1.95957e-06
-1.10738e-07
-1.92086e-06
-1.14815e-07
-1.88085e-06
-1.18812e-07
-1.83957e-06
-1.22719e-07
-1.79705e-06
-1.26533e-07
-1.75332e-06
-1.30248e-07
-1.70841e-06
-1.33861e-07
-1.66235e-06
-1.37369e-07
-1.6152e-06
-1.40772e-07
-1.56696e-06
-1.44066e-07
-1.5177e-06
-1.47248e-07
-1.46743e-06
-1.50308e-07
-1.41622e-06
-1.53236e-07
-1.36409e-06
-1.56036e-07
-1.31109e-06
-1.5871e-07
-1.25726e-06
-1.6125e-07
-1.20265e-06
-1.63651e-07
-1.14731e-06
-1.65909e-07
-1.09128e-06
-1.68024e-07
-1.03462e-06
-1.69995e-07
-9.77361e-07
-1.7182e-07
-9.19566e-07
-1.735e-07
-8.6128e-07
-1.75033e-07
-8.0255e-07
-1.76419e-07
-7.43425e-07
-1.77658e-07
-6.83955e-07
-1.7875e-07
-6.24186e-07
-1.79696e-07
-5.64166e-07
-1.80499e-07
-5.03943e-07
-1.8116e-07
-4.43561e-07
-1.81682e-07
-3.83066e-07
-1.82069e-07
-3.225e-07
-1.82325e-07
-2.61905e-07
-1.82455e-07
-2.01322e-07
-1.82462e-07
-1.4079e-07
-1.82351e-07
-8.03447e-08
-1.82127e-07
-2.00195e-08
-1.81796e-07
4.01524e-08
-1.8136e-07
1.00136e-07
-1.80819e-07
1.599e-07
-1.80183e-07
2.19412e-07
-1.79458e-07
2.7865e-07
-1.78644e-07
3.37609e-07
-1.77733e-07
3.96262e-07
-1.76717e-07
4.5458e-07
-1.75605e-07
5.12556e-07
-1.74433e-07
5.70172e-07
-1.73241e-07
6.27412e-07
-1.72036e-07
6.84261e-07
-1.70809e-07
7.40698e-07
-1.69533e-07
7.96689e-07
-1.68166e-07
8.52179e-07
-1.66636e-07
9.07076e-07
-1.6482e-07
9.61223e-07
-1.62508e-07
1.01436e-06
-1.59315e-07
1.06605e-06
-1.54531e-07
1.11563e-06
-1.46697e-07
1.16219e-06
-1.33106e-07
1.2053e-06
-1.0759e-07
-5.63557e-08
1.24961e-06
-7.28253e-09
-1.33016e-08
-1.87934e-08
4.44681e-10
-3.16797e-08
1.26363e-08
-4.54025e-08
2.34158e-08
-5.98652e-08
3.32377e-08
-7.50964e-08
4.22555e-08
-9.12092e-08
5.0504e-08
-1.08326e-07
5.7992e-08
-1.26566e-07
6.47505e-08
-1.45994e-07
7.08481e-08
-1.66643e-07
7.63819e-08
-1.88494e-07
8.14617e-08
-2.11519e-07
8.61925e-08
-2.35672e-07
9.06652e-08
-2.6092e-07
9.49509e-08
-2.87223e-07
9.91037e-08
-3.14558e-07
1.03161e-07
-3.429e-07
1.0715e-07
-3.72228e-07
1.11086e-07
-4.02522e-07
1.1498e-07
-4.33754e-07
1.18836e-07
-4.65898e-07
1.2265e-07
-4.98897e-07
1.26413e-07
-5.32711e-07
1.30108e-07
-5.67237e-07
1.3371e-07
-6.02401e-07
1.37183e-07
-6.38051e-07
1.40484e-07
-6.74073e-07
1.43563e-07
-7.103e-07
1.46373e-07
-7.46617e-07
1.4887e-07
-7.82881e-07
1.51024e-07
-8.19007e-07
1.52825e-07
-8.54921e-07
1.54304e-07
-8.90505e-07
1.55543e-07
-9.25624e-07
1.56608e-07
-9.60178e-07
1.57513e-07
-9.94164e-07
1.58208e-07
-1.02757e-06
1.58645e-07
-1.06042e-06
1.58781e-07
-1.09279e-06
1.58577e-07
-1.12484e-06
1.58011e-07
-1.15665e-06
1.57138e-07
-1.18864e-06
1.55969e-07
-1.22104e-06
1.54643e-07
-1.25343e-06
1.534e-07
-1.28557e-06
1.52292e-07
-1.3174e-06
1.51279e-07
-1.34894e-06
1.5031e-07
-1.38022e-06
1.4935e-07
-1.41128e-06
1.48376e-07
-1.44213e-06
1.47378e-07
-1.47277e-06
1.46349e-07
-1.50322e-06
1.45282e-07
-1.53346e-06
1.44172e-07
-1.56348e-06
1.43015e-07
-1.59327e-06
1.41804e-07
-1.62282e-06
1.40533e-07
-1.65211e-06
1.39195e-07
-1.68112e-06
1.37784e-07
-1.70982e-06
1.36293e-07
-1.7382e-06
1.34715e-07
-1.76623e-06
1.33044e-07
-1.79388e-06
1.31272e-07
-1.82114e-06
1.29395e-07
-1.84796e-06
1.27406e-07
-1.87433e-06
1.25299e-07
-1.90021e-06
1.23071e-07
-1.92557e-06
1.20716e-07
-1.95038e-06
1.1823e-07
-1.9746e-06
1.15611e-07
-1.99821e-06
1.12854e-07
-2.02118e-06
1.09958e-07
-2.04346e-06
1.06921e-07
-2.06502e-06
1.03742e-07
-2.08583e-06
1.00418e-07
-2.10586e-06
9.69513e-08
-2.12507e-06
9.33403e-08
-2.14343e-06
8.95859e-08
-2.1609e-06
8.5689e-08
-2.17746e-06
8.16511e-08
-2.19306e-06
7.74739e-08
-2.20768e-06
7.31595e-08
-2.22128e-06
6.87104e-08
-2.23384e-06
6.41294e-08
-2.24533e-06
5.94196e-08
-2.25571e-06
5.45849e-08
-2.26496e-06
4.96289e-08
-2.27306e-06
4.45562e-08
-2.27999e-06
3.93715e-08
-2.28571e-06
3.40802e-08
-2.29022e-06
2.86884e-08
-2.2935e-06
2.32032e-08
-2.29553e-06
1.76337e-08
-2.29631e-06
1.199e-08
-2.29581e-06
6.28405e-09
-2.29401e-06
5.28742e-10
-2.2909e-06
-5.26491e-09
-2.28642e-06
-1.10965e-08
-2.28055e-06
-1.6978e-08
-2.27328e-06
-2.29162e-08
-2.26458e-06
-2.89052e-08
-2.25446e-06
-3.49374e-08
-2.24289e-06
-4.10049e-08
-2.22987e-06
-4.70996e-08
-2.21539e-06
-5.32141e-08
-2.19945e-06
-5.93402e-08
-2.18205e-06
-6.5471e-08
-2.16319e-06
-7.15987e-08
-2.14286e-06
-7.77166e-08
-2.12108e-06
-8.38172e-08
-2.09785e-06
-8.98941e-08
-2.07317e-06
-9.59398e-08
-2.04706e-06
-1.01948e-07
-2.01952e-06
-1.07911e-07
-1.99057e-06
-1.13822e-07
-1.96023e-06
-1.19674e-07
-1.92849e-06
-1.25461e-07
-1.8954e-06
-1.31174e-07