/*--------------------------------*- C++ -*----------------------------------*\
  =========                 |
  \\      /  F ield         | OpenFOAM: The Open Source CFD Toolbox
   \\    /   O peration     | Website:  https://openfoam.org
    \\  /    A nd           | Version:  11
     \\/     M anipulation  |
\*---------------------------------------------------------------------------*/
FoamFile
{
    format      ascii;
    class       volScalarField::Internal;
    location    "287";
    object      tmp<kEpsilon:G>;
}
// * * * * * * * * * * * * * * * * * * * * * * * * * * * * * * * * * * * * * //

dimensions      [0 2 -3 0 0 0 0];

value           nonuniform List<scalar> 
12225
(
0
0
0
0
0
0
0
0
0
0
0
0
0
0
0
0
0
0
947.464
499.32
262.327
277.58
379.751
495.268
604.994
715.086
802.506
888.344
950.043
1008.58
1048.48
1084.91
1112.54
1130.02
1167.25
1133.99
85.4726
123.101
55.5192
17.2368
5.18729
4.39866
8.80119
16.6824
26.6126
38.3711
50.8926
64.062
77.51
90.3887
103.973
115.382
129.573
136.293
5.03698
1.74501
0.640973
0.702173
0.465227
0.185296
0.0269634
0.189083
0.790469
1.87963
3.44255
5.41323
7.82185
10.396
13.4366
16.2986
19.7519
22.5555
0.224383
0.131565
0.147842
0.314036
0.426057
0.406404
0.289181
0.153255
0.0568413
0.0250768
0.0743974
0.21206
0.44668
0.761085
1.18
1.64114
2.20293
2.75262
0.177081
0.18867
0.264829
0.320369
0.322834
0.317694
0.289921
0.238911
0.182243
0.127138
0.0802259
0.0456404
0.0279437
0.0290318
0.0505487
0.0908483
0.147246
0.216423
0.126535
0.211589
0.231022
0.21301
0.212256
0.230711
0.238735
0.22767
0.208373
0.184772
0.159416
0.132983
0.108661
0.0875114
0.0711068
0.0605925
0.0556235
0.0548779
0.0973879
0.148853
0.159686
0.157136
0.167644
0.188227
0.200749
0.200676
0.195408
0.187757
0.178389
0.167054
0.155531
0.144347
0.134905
0.127782
0.124399
0.121736
0.0740363
0.104533
0.122063
0.130431
0.142056
0.158007
0.169385
0.173057
0.173329
0.172496
0.170726
0.167936
0.164854
0.162082
0.160448
0.160283
0.162777
0.165078
0.0560842
0.0774381
0.0972121
0.108831
0.119541
0.132601
0.143227
0.148722
0.151461
0.153444
0.15501
0.156079
0.157187
0.158701
0.161246
0.164764
0.170218
0.175001
0.0423444
0.0583373
0.0770671
0.0898055
0.100359
0.11189
0.121812
0.128037
0.131884
0.134992
0.137859
0.1405
0.143275
0.146453
0.150434
0.155045
0.160873
0.165905
0.0324219
0.04511
0.0621405
0.0753199
0.0858603
0.0963519
0.105538
0.111906
0.116195
0.11969
0.122937
0.126022
0.129197
0.132664
0.136668
0.14101
0.146058
0.150242
0.0245402
0.0347353
0.0499721
0.0632034
0.0737563
0.0835354
0.0921221
0.0984773
0.102981
0.106603
0.109881
0.112959
0.116016
0.119201
0.122657
0.126208
0.130086
0.133143
0.0175675
0.0257147
0.0389778
0.0516818
0.062115
0.0713405
0.079379
0.08562
0.0902222
0.0938586
0.0970081
0.0998586
0.102543
0.105166
0.107808
0.110329
0.112901
0.114734
0.0116511
0.0182345
0.0296285
0.0414346
0.0515212
0.060238
0.0677564
0.0737749
0.0783413
0.0818887
0.0848109
0.0873097
0.0894967
0.0914489
0.0932189
0.0947175
0.0960966
0.0968488
0.0068899
0.0122943
0.0220358
0.0327698
0.0423252
0.050546
0.0575703
0.0632723
0.0676651
0.0710198
0.0736427
0.0757272
0.077384
0.0786807
0.0796715
0.080318
0.0807623
0.0807216
0.00336841
0.00792287
0.0163344
0.0260179
0.0349449
0.0426628
0.0492072
0.0545247
0.058626
0.0616916
0.0639587
0.065608
0.0667557
0.0674792
0.0678428
0.0678569
0.0676411
0.0670908
0.00119818
0.00520311
0.0126885
0.0215169
0.0298137
0.0369973
0.043032
0.0478909
0.0515897
0.0542686
0.0561269
0.0573371
0.0580224
0.0582736
0.0581661
0.0577471
0.057102
0.0562594
0.00067177
0.00446491
0.0115887
0.0200115
0.0278774
0.0345895
0.040128
0.0444873
0.0476891
0.0498743
0.051247
0.0519881
0.0522294
0.0520724
0.0515996
0.0508845
0.0499686
0.0489901
0.00204476
0.0060808
0.0136588
0.022348
0.0300893
0.0364679
0.0416302
0.0455677
0.0482758
0.0499326
0.0507963
0.0510734
0.0509002
0.0503821
0.0496038
0.0486472
0.0475258
0.0464168
0.00472814
0.00942399
0.0181254
0.0274467
0.0350585
0.0410437
0.0458498
0.0494034
0.0516399
0.0528057
0.0532283
0.0531202
0.0526068
0.0517958
0.050779
0.0496424
0.0483809
0.0471795
0.00871493
0.0148693
0.0252556
0.0351398
0.0425977
0.0483028
0.0527381
0.0556721
0.0571553
0.0576756
0.0576314
0.0571717
0.0563641
0.055311
0.0541025
0.0528234
0.0514445
0.0501628
0.0139797
0.0239402
0.0361884
0.0443424
0.0507182
0.0569909
0.0620703
0.0646583
0.0651678
0.0647583
0.0640026
0.0629685
0.0616626
0.0601966
0.0586419
0.0570743
0.0554277
0.0538755
0.0214614
0.0423925
0.0593341
0.0604456
0.059658
0.0636489
0.0695375
0.0733248
0.074543
0.0745113
0.0737408
0.0722322
0.0700647
0.0675133
0.0647135
0.0618237
0.0587773
0.0558718
0.0433419
0.0760713
0.0937254
0.10472
0.0971696
0.0901418
0.0875816
0.0862823
0.0847966
0.0829897
0.0800927
0.0756575
0.0698511
0.0633112
0.0564495
0.0497498
0.0433775
0.0377659
0.0805342
0.213192
0.0680995
0.0786756
0.167343
0.214731
0.214087
0.189289
0.15819
0.127612
0.0985224
0.0722063
0.0503266
0.0345972
0.0260866
0.0255744
0.033169
0.0487558
0.659996
0.124874
0.315982
0.505935
0.373402
0.295746
0.229577
0.141704
0.0605642
0.0116303
0.0105538
0.0681145
0.189056
0.374734
0.620211
0.923558
1.27085
1.66009
31.8775
71.0681
43.2476
18.2728
7.0687
2.67219
1.11398
1.00734
1.81644
3.28493
5.25749
7.63431
10.2755
13.157
16.1291
19.2247
22.2419
25.2874
455.413
257.653
100.987
70.5615
91.6372
128.079
168.032
205.873
241.274
273.953
303.064
329.743
353.064
374.479
393.024
410.501
425.897
440.971
0
0
0
0
0
0
0
0
0
0
0
0
0
0
0
0
0
0
0
0
0
0
0
0
0
0
0
0
0
0
0
0
0
0
0
0
0
0
0
0
0
0
0
0
0
0
0
0
0
0
0
9.51937
10.3842
11.1279
11.8555
12.5581
13.2955
13.9394
14.412
14.8175
15.5662
17.2114
18.3937
19.9796
21.5508
23.2906
25.0883
26.9918
28.9741
31.048
33.2067
35.4546
37.7902
40.2154
42.7299
45.3349
48.0301
50.8162
53.6928
56.6598
59.7163
62.8619
66.0948
69.414
72.8172
76.3024
79.8666
83.5072
87.2201
91.0022
94.8484
98.7548
102.715
106.726
110.779
114.869
118.989
123.133
127.291
131.458
135.623
139.78
143.918
148.03
152.103
156.13
160.098
163.997
167.815
171.538
175.153
178.644
181.995
185.192
188.22
191.071
193.754
196.27
198.623
200.803
202.807
204.626
206.255
207.686
208.914
209.932
210.736
211.322
211.684
211.819
211.724
211.397
210.836
210.039
209.005
207.735
206.229
204.488
202.515
200.311
197.879
195.223
192.347
189.256
185.954
182.447
178.751
174.872
170.795
166.537
162.107
157.534
152.822
147.96
142.971
137.863
132.647
127.333
121.932
116.456
110.915
105.319
99.6801
94.008
88.3134
82.6066
76.898
71.1972
65.514
59.8575
54.2366
48.66
43.1359
37.6726
32.2784
26.9619
21.734
16.6102
11.6223
6.87334
3.08471
4.35139
8.58997
13.1534
17.7559
22.3427
26.897
31.4114
35.881
40.3007
44.6635
48.9561
53.1596
57.2179
61.0918
64.3641
67.3822
64.5036
0
0.00310712
0.00512175
0.0167624
0.0480717
0.101365
0.176494
0.270333
0.379153
0.499408
0.628838
0.766944
0.914451
1.07227
1.24132
1.42224
1.61552
1.82134
2.04002
2.27179
2.51761
2.77838
3.05606
3.35268
3.67083
4.01274
4.37428
4.74161
5.11589
5.50273
5.85682
6.19062
6.58145
6.79591
6.97476
6.74192
6.63554
6.33505
5.68885
5.16547
4.91142
4.06544
4.10625
5.11577
5.1073
4.9347
4.80127
4.67821
4.55084
4.41347
4.26882
4.11905
3.96641
3.81238
3.65825
3.50498
3.35347
3.20449
3.05879
2.91713
2.78031
2.64913
2.5245
2.40732
2.2986
2.19935
2.11069
2.03374
1.96969
1.91974
1.88513
1.86709
1.86687
1.88571
1.92481
1.98534
2.06843
2.17512
2.30642
2.46325
2.64639
2.85655
3.09429
3.36007
3.65411
3.97649
4.32697
4.70508
5.10994
5.54023
5.99405
6.46838
6.9586
7.45807
7.9587
8.45286
8.93409
9.39225
9.80949
10.2331
10.6547
11.0858
11.5273
11.9801
12.444
12.9185
13.4028
13.8963
14.398
14.9071
15.4227
15.9439
16.4695
16.9987
17.5303
18.0633
18.5967
19.1291
19.6595
20.1867
20.7098
21.228
21.7404
22.2457
22.7427
23.2303
23.7073
24.1727
24.6256
25.066
25.4944
25.9064
26.2996
26.6772
27.0425
27.3899
27.7195
28.0308
28.324
28.5985
28.8548
29.0929
29.3131
29.5156
29.7006
29.8683
30.019
30.1531
30.271
30.3733
30.4606
30.5335
30.5925
30.6385
30.672
30.6939
30.7051
30.7072
30.7011
30.6874
30.6658
30.6424
30.6317
30.6138
30.5623
30.4914
30.4241
30.364
30.3098
30.2598
30.2127
30.1674
30.123
30.0823
30.0459
30.066
30.1358
30.9924
32.4056
41.2228
0
0.0270091
0.0942175
0.151213
0.213188
0.289064
0.3876
0.512179
0.660509
0.827051
1.00619
1.19401
1.38871
1.59003
1.79866
2.0154
2.24097
2.47565
2.71953
2.97204
3.23247
3.49955
3.77147
4.04549
4.3178
4.58214
4.83046
5.0592
5.2627
5.43573
5.57805
5.69758
5.7939
5.82728
5.77151
5.64106
5.53727
5.42445
5.29582
5.19254
5.1462
5.09621
5.10901
5.17183
5.20347
5.21388
5.26952
5.37706
5.53106
5.721
5.93988
6.18279
6.44679
6.7298
7.03041
7.34749
7.68022
8.02782
8.38968
8.7652
9.15386
9.55517
9.96867
10.3939
10.8305
11.2781
11.7363
12.2048
12.6833
13.1715
13.6691
14.176
14.692
15.2169
15.7505
16.2929
16.8437
17.403
17.9707
18.5466
19.1306
19.7226
20.3223
20.9296
21.544
22.1651
22.7922
23.4246
24.0612
24.7012
25.3439
25.9891
26.6375
27.2908
27.9539
28.6365
29.3533
30.1225
30.973
31.8382
32.7195
33.6103
34.5083
35.4122
36.3206
37.232
38.1443
39.0557
39.9642
40.8678
41.7644
42.652
43.5285
44.3917
45.2394
46.0697
46.8805
47.6694
48.4341
49.1726
49.8833
50.5649
51.216
51.8344
52.4183
52.9652
53.4737
53.9423
54.3704
54.7574
55.1039
55.4054
55.6567
55.8646
56.0318
56.1533
56.2288
56.2582
56.2418
56.1802
56.0743
55.9251
55.7338
55.5014
55.2291
54.9182
54.57
54.1861
53.7682
53.318
52.8376
52.3288
51.7937
51.2345
50.6536
50.0535
49.4361
48.803
48.1574
47.5016
46.8344
46.1546
45.4588
44.757
44.0716
43.4006
42.7388
42.0885
41.45
40.8227
40.2059
39.5997
39.0057
38.4316
37.8925
37.4689
37.2474
38.0055
40.14
46.8468
0
0.128087
0.282649
0.394691
0.482814
0.566094
0.662938
0.783226
0.929811
1.1006
1.29093
1.49578
1.71117
1.93454
2.16455
2.40046
2.64173
2.88756
3.13673
3.38736
3.63706
3.88256
4.12003
4.34505
4.55275
4.73831
4.89677
5.02519
5.1245
5.20044
5.2605
5.31691
5.37704
5.42159
5.43791
5.43212
5.43409
5.45599
5.4967
5.58701
5.73511
5.91628
6.23661
6.7081
7.14699
7.52819
7.88889
8.25686
8.64572
9.05928
9.49754
9.95915
10.4426
10.9464
11.4694
12.0107
12.5693
13.1446
13.736
14.3429
14.965
15.6019
16.2534
16.9191
17.599
18.2929
19.0009
19.7228
20.4589
21.2092
21.9738
22.753
23.547
24.3561
25.1806
26.0208
26.877
27.7494
28.6383
29.5441
30.4668
31.4066
32.3636
33.3378
34.3292
35.3376
36.3628
37.4043
38.462
39.5359
40.6265
41.735
42.8636
44.0161
45.1985
46.4184
47.6776
48.9689
50.2822
51.6079
52.9476
54.2969
55.652
57.0097
58.3672
59.7216
61.0697
62.4084
63.7347
65.0453
66.3372
67.6072
68.8522
70.0689
71.2542
72.4053
73.5189
74.5918
75.6207
76.6027
77.5357
78.4181
79.2477
80.0219
80.7378
81.3928
81.9842
82.5102
82.9704
83.365
83.6954
83.9515
84.132
84.2465
84.2934
84.2706
84.1773
84.0138
83.7806
83.479
83.1108
82.6777
82.1816
81.6245
81.0085
80.3357
79.6086
78.8298
78.0022
77.1287
76.2125
75.2569
74.2655
73.2417
72.1887
71.1093
70.0063
68.8816
67.739
66.5835
65.4208
64.2534
63.0775
61.8862
60.6918
59.5026
58.3228
57.1601
56.0189
54.9014
53.8096
52.7474
51.7222
50.7533
49.878
49.219
48.9333
49.848
52.3772
57.7317
0
0.276961
0.523411
0.704299
0.825214
0.916602
1.00836
1.11558
1.24514
1.3987
1.57424
1.76778
1.97498
2.19203
2.41592
2.64424
2.87492
3.1058
3.33461
3.55851
3.77441
3.97887
4.16847
4.34006
4.49133
4.62157
4.73199
4.8266
4.91165
4.99594
5.08937
5.2008
5.3339
5.48104
5.63108
5.78194
5.94284
6.12393
6.33417
6.58371
6.88299
7.23593
7.6731
8.19405
8.74461
9.29625
9.84735
10.4065
10.9822
11.5792
12.2001
12.8458
13.5161
14.2109
14.9295
15.6714
16.4364
17.2241
18.0342
18.8664
19.7207
20.5971
21.4957
22.4165
23.3598
24.326
25.3153
26.3282
27.3652
28.4268
29.5136
30.6261
31.7648
32.9305
34.1237
35.3449
36.5947
37.8734
39.1816
40.5195
41.8874
43.2854
44.7135
46.1717
47.6598
49.1776
50.7248
52.301
53.9058
55.5393
57.2018
58.894
60.6172
62.373
64.1633
65.9889
67.8452
69.7206
71.6062
73.5007
75.404
77.3124
79.2214
81.1266
83.0234
84.9075
86.7741
88.619
90.4374
92.2251
93.9776
95.6904
97.3593
98.9799
100.548
102.06
103.511
104.897
106.214
107.458
108.627
109.719
110.731
111.66
112.503
113.256
113.916
114.482
114.952
115.331
115.612
115.791
115.866
115.851
115.738
115.529
115.223
114.822
114.325
113.736
113.058
112.292
111.443
110.512
109.504
108.421
107.267
106.046
104.762
103.42
102.023
100.577
99.0847
97.5513
95.9805
94.376
92.7436
91.0892
89.4172
87.7327
86.0417
84.3499
82.6583
80.9604
79.2585
77.5584
75.869
74.2022
72.5665
70.9684
69.4146
67.915
66.4863
65.1632
64.0077
63.1795
62.8822
63.9204
66.5451
70.7429
0
0.436524
0.760355
1.01458
1.17562
1.28081
1.37018
1.46328
1.57036
1.6963
1.84185
2.00488
2.18187
2.36895
2.56243
2.75903
2.9558
3.14998
3.3389
3.51994
3.69071
3.84905
3.99354
4.12379
4.2407
4.347
4.447
4.54674
4.6531
4.77371
4.91587
5.0852
5.28379
5.50837
5.75347
6.01593
6.298
6.60499
6.94325
7.32016
7.74362
8.22075
8.75914
9.35784
10.0008
10.6726
11.3661
12.0807
12.8189
13.5832
14.3757
15.1975
16.0495
16.932
17.8454
18.7896
19.7648
20.7711
21.8086
22.8777
23.9788
25.1124
26.2789
27.4792
28.714
29.984
31.2903
32.6337
34.0153
35.4359
36.8968
38.3987
39.9428
41.5299
43.1609
44.8365
46.5576
48.3245
50.1377
51.9975
53.904
55.8571
57.8567
59.9023
61.9934
64.1292
66.3091
68.5319
70.7966
73.1024
75.4484
77.8338
80.2578
82.7189
85.2153
87.7428
90.2937
92.8577
95.4276
98.0009
100.576
103.147
105.711
108.26
110.789
113.291
115.761
118.191
120.577
122.912
125.19
127.405
129.552
131.626
133.62
135.53
137.35
139.075
140.7
142.222
143.636
144.942
146.135
147.211
148.168
149.002
149.71
150.289
150.741
151.067
151.259
151.317
151.245
151.049
150.726
150.275
149.7
149.001
148.18
147.241
146.188
145.025
143.756
142.386
140.918
139.358
137.71
135.98
134.173
132.293
130.348
128.341
126.278
124.166
122.011
119.82
117.6
115.356
113.097
110.827
108.553
106.282
104.016
101.756
99.4998
97.2517
95.0207
92.8205
90.663
88.5597
86.5227
84.5693
82.7269
81.0455
79.6088
78.5999
78.2352
79.2437
81.6469
84.814
0
0.584912
0.957525
1.27456
1.47534
1.5976
1.68779
1.76861
1.85288
1.94809
2.05743
2.18078
2.31604
2.46011
2.60969
2.76162
2.91305
3.06152
3.20498
3.34176
3.47078
3.59166
3.70486
3.81194
3.91557
4.0197
4.12917
4.24965
4.38702
4.54713
4.73519
4.95503
5.20843
5.49448
5.81057
6.15457
6.52696
6.93075
7.37037
7.85097
8.37793
8.95588
9.58816
10.2742
11.0087
11.7847
12.5972
13.444
14.3249
15.2407
16.1925
17.1814
18.2083
19.2742
20.3797
21.5256
22.7127
23.9417
25.2135
26.5291
27.8895
29.296
30.7499
32.2526
33.8054
35.4101
37.0681
38.781
40.5505
42.3781
44.2653
46.2137
48.2245
50.2991
52.4386
54.6438
56.9155
59.2543
61.6604
64.1338
66.6745
69.2818
71.955
74.6931
77.4948
80.3584
83.2823
86.2642
89.3018
92.3926
95.5341
98.7233
101.957
105.231
108.539
111.876
115.232
118.596
121.961
125.323
128.676
132.015
135.333
138.623
141.876
145.084
148.239
151.334
154.361
157.312
160.179
162.955
165.633
168.206
170.668
173.011
175.231
177.319
179.272
181.084
182.752
184.273
185.644
186.86
187.918
188.814
189.547
190.112
190.516
190.749
190.814
190.707
190.44
190.014
189.426
188.679
187.774
186.716
185.507
184.154
182.66
181.032
179.275
177.396
175.398
173.29
171.076
168.763
166.357
163.866
161.297
158.656
155.952
153.193
150.387
147.544
144.67
141.774
138.864
135.946
133.028
130.116
127.214
124.328
121.458
118.608
115.786
113.006
110.284
107.636
105.079
102.638
100.352
98.2816
96.5271
95.2791
94.7404
95.5449
97.4701
99.6616
0
0.707022
1.09276
1.4515
1.68308
1.82053
1.91247
1.9829
2.04629
2.11198
2.18512
2.26748
2.3586
2.45677
2.55973
2.66515
2.77103
2.87574
2.97827
3.07814
3.17551
3.27127
3.36701
3.4652
3.56899
3.6822
3.80911
3.95435
4.12261
4.31839
4.54566
4.80751
5.10576
5.44069
5.81163
6.21786
6.65977
7.13919
7.65907
8.22303
8.83481
9.49774
10.2139
10.9838
11.8055
12.6766
13.5947
14.5583
15.5669
16.6208
17.7209
18.8681
20.0636
21.3088
22.605
23.9537
25.3563
26.8144
28.3298
29.9043
31.54
33.2388
35.003
36.8349
38.7369
40.7113
42.7605
44.8869
47.0929
49.3806
51.7521
54.2095
56.7543
59.3882
62.1125
64.9281
67.8356
70.8355
73.9277
77.1118
80.387
83.7521
87.2054
90.7449
94.3682
98.0724
101.854
105.71
109.636
113.626
117.678
121.784
125.939
130.137
134.368
138.625
142.895
147.169
151.437
155.691
159.924
164.128
168.294
172.413
176.474
180.468
184.384
188.213
191.946
195.571
199.081
202.467
205.719
208.829
211.79
214.594
217.233
219.7
221.989
224.095
226.016
227.746
229.282
230.62
231.757
232.69
233.416
233.935
234.248
234.346
234.236
233.915
233.4
232.687
231.775
230.669
229.371
227.887
226.222
224.384
222.379
220.213
217.894
215.43
212.826
210.091
207.233
204.259
201.178
197.999
194.731
191.385
187.969
184.494
180.969
177.405
173.811
170.197
166.571
162.942
159.317
155.702
152.106
148.534
144.992
141.484
138.019
134.611
131.28
128.043
124.926
121.959
119.189
116.688
114.563
113
112.171
112.616
113.885
115.158
0
0.798758
1.1591
1.53301
1.78071
1.92691
2.01851
2.07926
2.12419
2.16378
2.20459
2.24999
2.30112
2.35773
2.41896
2.48374
2.55118
2.62078
2.69241
2.76641
2.84371
2.92582
3.01479
3.11314
3.22379
3.35019
3.49592
3.66475
3.86044
4.08654
4.34637
4.64262
4.97732
5.35162
5.76604
6.22096
6.71715
7.25614
7.84013
8.47185
9.15413
9.88931
10.6796
11.5261
12.4292
13.3886
14.4037
15.4745
16.6011
17.7843
19.0252
20.3252
21.6861
23.1099
24.5987
26.1549
27.7809
29.4792
31.2528
33.1044
35.0372
37.0544
39.1593
41.3552
43.6456
46.0338
48.5232
51.1169
53.818
56.6294
59.5538
62.5935
65.7505
69.0265
72.4229
75.9404
79.5795
83.34
87.2213
91.2222
95.341
99.5754
103.922
108.379
112.94
117.603
122.36
127.208
132.138
137.145
142.221
147.358
152.547
157.778
163.041
168.323
173.613
178.898
184.166
189.406
194.609
199.764
204.859
209.883
214.823
219.669
224.406
229.024
233.511
237.856
242.047
246.074
249.927
253.596
257.072
260.346
263.409
266.253
268.873
271.264
273.421
275.339
277.015
278.445
279.626
280.556
281.233
281.66
281.829
281.74
281.398
280.806
279.98
278.915
277.613
276.077
274.314
272.331
270.136
267.736
265.141
262.359
259.399
256.269
252.978
249.537
245.956
242.244
238.412
234.471
230.433
226.308
222.11
217.848
213.536
209.184
204.804
200.407
196.002
191.599
187.206
182.831
178.482
174.17
169.902
165.683
161.525
157.443
153.457
149.59
145.871
142.337
139.04
136.06
133.503
131.543
130.312
130.27
130.769
131.179
0
0.861746
1.16084
1.52364
1.77022
1.91609
2.00293
2.05319
2.08165
2.0992
2.11327
2.12844
2.14727
2.17103
2.20007
2.23438
2.27399
2.31897
2.37017
2.42858
2.4956
2.573
2.66281
2.76735
2.88925
3.03121
3.19623
3.38731
3.60753
3.85985
4.14716
4.47202
4.83664
5.24276
5.69175
6.18482
6.72328
7.30883
7.94355
8.62998
9.37073
10.1685
11.0253
11.943
12.9228
13.966
15.074
16.2477
17.4887
18.7986
20.1794
21.6335
23.1637
24.7731
26.4647
28.2421
30.1089
32.0688
34.126
36.2847
38.5492
40.9241
43.414
46.0233
48.7567
51.6186
54.6132
57.7446
61.0165
64.4324
67.9954
71.7079
75.5722
79.5899
83.7619
88.0887
92.57
97.2048
101.992
106.928
112.011
117.236
122.599
128.095
133.717
139.459
145.314
151.272
157.325
163.463
169.676
175.953
182.281
188.649
195.042
201.447
207.848
214.231
220.582
226.886
233.131
239.303
245.389
251.374
257.244
262.984
268.58
274.02
279.288
284.372
289.259
293.936
298.394
302.62
306.604
310.335
313.804
317.005
319.929
322.571
324.928
326.994
328.765
330.238
331.412
332.284
332.855
333.124
333.087
332.744
332.102
331.169
329.959
328.466
326.695
324.651
322.343
319.78
316.972
313.929
310.661
307.18
303.496
299.621
295.564
291.34
286.958
282.433
277.776
273
268.12
263.147
258.097
252.981
247.815
242.612
237.383
232.141
226.897
221.662
216.445
211.254
206.102
200.998
195.953
190.976
186.079
181.278
176.595
172.057
167.695
163.552
159.686
156.175
153.124
150.687
148.957
148.326
147.989
147.588
0
0.901099
1.10989
1.43872
1.66829
1.80381
1.88016
1.91778
1.93071
1.92986
1.92331
1.91622
1.912
1.91256
1.91957
1.93409
1.957
1.98927
2.03183
2.08585
2.1527
2.23395
2.33136
2.44686
2.58263
2.74094
2.92427
3.13521
3.37647
3.65073
3.96072
4.309
4.69802
5.12999
5.60693
6.13075
6.70338
7.32697
8.00389
8.73682
9.52855
10.382
11.3001
12.2853
13.3409
14.4692
15.6725
16.9531
18.3138
19.7579
21.2888
22.9104
24.627
26.4428
28.3625
30.3908
32.5328
34.7938
37.1794
39.6953
42.3474
45.1416
48.0839
51.1801
54.4357
57.8563
61.4468
65.2121
69.1563
73.2831
77.5958
82.0968
86.7878
91.6701
96.7438
102.008
107.463
113.104
118.929
124.934
131.114
137.463
143.974
150.639
157.449
164.396
171.468
178.654
185.943
193.321
200.774
208.289
215.851
223.444
231.051
238.655
246.239
253.785
261.276
268.696
276.029
283.258
290.366
297.338
304.156
310.804
317.266
323.526
329.569
335.381
340.946
346.252
351.285
356.034
360.488
364.633
368.463
371.967
375.14
377.976
380.47
382.617
384.414
385.859
386.951
387.689
388.073
388.103
387.777
387.099
386.073
384.713
383.033
381.024
378.695
376.054
373.113
369.882
366.374
362.602
358.578
354.315
349.826
345.125
340.224
335.139
329.882
324.47
318.916
313.235
307.443
301.556
295.588
289.556
283.475
277.359
271.224
265.081
258.944
252.825
246.733
240.679
234.676
228.736
222.871
217.092
211.414
205.855
200.437
195.19
190.148
185.358
180.878
176.787
173.182
170.198
167.886
166.595
165.387
164.23
0
0.923813
1.02187
1.2997
1.49924
1.61502
1.67489
1.69727
1.69521
1.6792
1.65696
1.63455
1.61593
1.60405
1.60079
1.60756
1.62551
1.65573
1.69921
1.75712
1.83064
1.92107
2.02986
2.15862
2.30919
2.48353
2.68384
2.91244
3.17186
3.46472
3.79375
4.16167
4.57124
5.02514
5.52603
6.07651
6.67921
7.33697
8.05286
8.83022
9.67254
10.5833
11.5665
12.6263
13.7669
14.9916
16.3045
17.7098
19.2115
20.8149
22.5254
24.3489
26.2913
28.3588
30.5574
32.8935
35.3739
38.0057
40.796
43.7524
46.8822
50.1928
53.6913
57.3846
61.2793
65.3814
69.6965
74.2294
78.9845
83.9651
89.174
94.613
100.283
106.183
112.313
118.671
125.252
132.054
139.069
146.292
153.715
161.329
169.125
177.092
185.218
193.489
201.894
210.416
219.041
227.751
236.531
245.362
254.227
263.107
271.982
280.832
289.637
298.376
307.029
315.579
324.005
332.289
340.41
348.351
356.093
363.618
370.909
377.946
384.715
391.199
397.382
403.25
408.789
413.987
418.831
423.309
427.412
431.132
434.463
437.399
439.934
442.065
443.79
445.106
446.014
446.514
446.608
446.296
445.58
444.462
442.95
441.063
438.814
436.186
433.2
429.866
426.196
422.205
417.907
413.318
408.451
403.322
397.946
392.339
386.517
380.495
374.291
367.92
361.401
354.749
347.983
341.119
334.176
327.17
320.119
313.039
305.946
298.855
291.778
284.729
277.72
270.763
263.87
257.056
250.335
243.72
237.227
230.876
224.691
218.702
212.948
207.475
202.343
197.628
193.416
189.823
186.867
184.866
182.779
180.913
0
0.936621
0.912849
1.1293
1.28974
1.37865
1.41722
1.42144
1.40387
1.37478
1.34224
1.31179
1.28746
1.27215
1.26789
1.27619
1.29814
1.33466
1.38656
1.45468
1.53993
1.64333
1.76607
1.90952
2.0753
2.26523
2.48148
2.72631
3.00229
3.31215
3.65879
4.04525
4.47474
4.95059
5.47619
6.05501
6.69077
7.3871
8.14829
8.97887
9.88357
10.868
11.9363
13.0938
14.3456
15.6978
17.1568
18.7289
20.4206
22.2393
24.1927
26.2886
28.5351
30.9401
33.5113
36.2571
39.186
42.3071
45.6293
49.1617
52.9128
56.8913
61.1049
65.5613
70.267
75.2281
80.4499
85.9367
91.6918
97.7176
104.015
110.585
117.425
124.534
131.907
139.541
147.429
155.563
163.936
172.537
181.355
190.379
199.595
208.988
218.544
228.246
238.077
248.018
258.051
268.155
278.312
288.499
298.696
308.881
319.031
329.124
339.136
349.044
358.828
368.464
377.932
387.21
396.277
405.112
413.696
422.008
430.031
437.745
445.133
452.177
458.862
465.173
471.095
476.615
481.72
486.4
490.645
494.448
497.803
500.704
503.146
505.126
506.643
507.696
508.287
508.419
508.091
507.309
506.08
504.398
502.28
499.753
496.814
493.457
489.706
485.573
481.073
476.223
471.04
465.541
459.743
453.664
447.32
440.729
433.911
426.882
419.661
412.268
404.722
397.04
389.244
381.351
373.381
365.354
357.288
349.201
341.11
333.031
324.979
316.967
309.008
301.116
293.305
285.589
277.986
270.508
263.175
256.007
249.03
242.276
235.784
229.6
223.784
218.407
213.545
209.296
205.651
202.91
199.951
197.424
0
0.945524
0.797227
0.948765
1.06552
1.12229
1.13542
1.11974
1.08701
1.04719
1.00797
0.974917
0.951819
0.941093
0.944262
0.96229
0.995812
1.04533
1.11132
1.19433
1.295
1.41417
1.5529
1.71247
1.89448
2.10082
2.3337
2.59564
2.88948
3.21833
3.58564
3.99495
4.4503
4.95588
5.51619
6.13606
6.82078
7.57641
8.40806
9.32157
10.3232
11.4187
12.616
13.9227
15.3468
16.8971
18.5823
20.4112
22.3934
24.5387
26.8568
29.358
32.052
34.9484
38.0569
41.3879
44.9519
48.7595
52.821
57.1462
61.7444
66.6241
71.793
77.2578
83.0243
89.097
95.4797
102.174
109.182
116.503
124.135
132.075
140.319
148.862
157.695
166.811
176.199
185.849
195.747
205.881
216.234
226.793
237.538
248.454
259.519
270.715
282.02
293.413
304.871
316.371
327.892
339.41
350.899
362.335
373.694
384.951
396.079
407.056
417.856
428.457
438.836
448.968
458.833
468.408
477.673
486.608
495.192
503.407
511.234
518.657
525.66
532.227
538.344
543.998
549.178
553.872
558.073
561.774
564.969
567.653
569.823
571.475
572.613
573.23
573.34
572.937
572.03
570.633
568.736
566.346
563.487
560.191
556.428
552.217
547.582
542.538
537.101
531.29
525.125
518.624
511.808
504.695
497.305
489.658
481.774
473.674
465.377
456.906
448.279
439.52
430.648
421.685
412.651
403.568
394.454
385.33
376.214
367.122
358.07
349.073
340.146
331.301
322.555
313.923
305.422
297.068
288.881
280.882
273.099
265.564
258.316
251.403
244.88
238.813
233.271
228.333
223.971
220.478
216.664
213.523
0
0.956434
0.687823
0.776091
0.84792
0.870641
0.856484
0.819567
0.77197
0.723713
0.682093
0.651935
0.636131
0.636253
0.652954
0.686426
0.73664
0.803572
0.887324
0.988206
1.10675
1.24378
1.40041
1.57812
1.77875
2.00452
2.25813
2.54262
2.86153
3.21891
3.61942
4.06852
4.57144
5.13367
5.76121
6.46064
7.23908
8.10427
9.06445
10.1282
11.3041
12.6016
14.0316
15.6048
17.3328
19.2273
21.3002
23.5634
26.0295
28.7104
31.6182
34.7645
38.1602
41.8165
45.7448
49.9573
54.4655
59.2805
64.4121
69.8695
75.6603
81.791
88.267
95.0921
102.269
109.798
117.68
125.912
134.492
143.414
152.673
162.261
172.167
182.384
192.897
203.695
214.762
226.083
237.642
249.419
261.397
273.555
285.874
298.332
310.907
323.575
336.314
349.098
361.905
374.708
387.481
400.199
412.835
425.363
437.756
449.989
462.036
473.871
485.469
496.807
507.86
518.605
529.018
539.08
548.768
558.065
566.948
575.398
583.399
590.934
597.99
604.551
610.601
616.13
621.128
625.584
629.494
632.85
635.649
637.883
639.556
640.659
641.203
641.183
640.6
639.472
637.811
635.609
632.872
629.614
625.868
621.647
616.915
611.718
606.074
600
593.514
586.639
579.394
571.802
563.883
555.66
547.153
538.384
529.376
520.149
510.728
501.134
491.39
481.517
471.54
461.48
451.359
441.199
431.022
420.847
410.694
400.58
390.522
380.535
370.634
360.835
351.152
341.603
332.204
322.973
313.931
305.101
296.509
288.19
280.182
272.53
265.289
258.518
252.277
246.632
241.54
237.297
232.657
228.957
0
0.972371
0.588895
0.618695
0.646022
0.632619
0.58977
0.53213
0.472196
0.419658
0.380954
0.359712
0.357512
0.37464
0.410668
0.464858
0.536503
0.625123
0.730663
0.853472
0.994279
1.15423
1.33503
1.53898
1.76905
2.02881
2.32187
2.65255
3.02581
3.44757
3.92471
4.46464
5.07559
5.76599
6.54506
7.42279
8.41009
9.51797
10.7596
12.1482
13.6975
15.4219
17.3356
19.4539
21.7917
24.364
27.1854
30.2705
33.6338
37.2886
41.2475
45.5227
50.122
55.0585
60.3439
65.9894
72.0044
78.3966
85.1718
92.3339
99.8854
107.827
116.158
124.875
133.975
143.452
153.3
163.509
174.069
184.971
196.201
207.745
219.589
231.717
244.112
256.757
269.631
282.716
295.989
309.431
323.02
336.732
350.545
364.437
378.382
392.356
406.333
420.289
434.198
448.032
461.766
475.374
488.829
502.107
515.18
528.023
540.611
552.919
564.922
576.597
587.921
598.871
609.424
619.562
629.265
638.514
647.29
655.573
663.347
670.598
677.316
683.486
689.092
694.125
698.579
702.445
705.719
708.393
710.471
711.937
712.808
713.067
712.743
711.788
710.282
708.19
705.527
702.297
698.507
694.183
689.371
684.024
678.156
671.811
665.006
657.76
650.093
642.029
633.59
624.8
615.682
606.258
596.552
586.587
576.386
565.973
555.372
544.607
533.701
522.679
511.564
500.379
489.148
477.893
466.636
455.398
444.199
433.056
421.986
411.006
400.131
389.376
378.757
368.293
357.999
347.895
338.002
328.343
318.946
309.844
301.074
292.681
284.715
277.231
270.279
263.918
258.093
253.109
247.668
243.48
0
0.985268
0.506795
0.489358
0.478009
0.433083
0.366694
0.294497
0.229246
0.179836
0.151218
0.145275
0.161974
0.200305
0.258894
0.336407
0.431911
0.545231
0.676885
0.827937
0.999974
1.19516
1.41664
1.66864
1.95631
2.28543
2.66256
3.09467
3.59033
4.15969
4.81436
5.56679
6.43006
7.41835
8.54632
9.83063
11.2893
12.9424
14.8088
16.9071
19.2553
21.8719
24.7752
27.9839
31.5158
35.3862
39.6084
44.196
49.1618
54.5164
60.2705
66.4265
72.9916
79.9764
87.3865
95.2247
103.491
112.182
121.294
130.82
140.754
151.085
161.804
172.897
184.353
196.156
208.293
220.746
233.501
246.539
259.843
273.393
287.17
301.156
315.329
329.67
344.158
358.769
373.484
388.279
403.132
418.022
432.924
447.818
462.677
477.479
492.198
506.808
521.286
535.608
549.752
563.693
577.406
590.866
604.051
616.936
629.5
641.719
653.57
665.03
676.079
686.694
696.858
706.552
715.76
724.466
732.65
740.298
747.392
753.929
759.895
765.276
770.055
774.228
777.785
780.723
783.039
784.72
785.786
786.206
786.02
785.166
783.716
781.641
778.956
775.673
771.804
767.352
762.338
756.808
750.767
744.155
737.037
729.441
721.385
712.89
703.978
694.672
684.998
674.979
664.641
654.007
643.1
631.945
620.566
608.989
597.237
585.336
573.31
561.184
548.981
536.726
524.442
512.151
499.877
487.639
475.457
463.35
451.334
439.425
427.639
415.991
404.498
393.177
382.045
371.117
360.419
349.975
339.812
329.963
320.466
311.361
302.695
294.52
286.879
279.823
273.291
267.601
261.394
256.829
0
0.989488
0.446524
0.400656
0.362889
0.296555
0.216673
0.140091
0.0790742
0.0408478
0.0282782
0.0413621
0.0788
0.139035
0.220609
0.322401
0.444196
0.587114
0.753631
0.947055
1.17124
1.43108
1.73338
2.08732
2.50386
2.99499
3.57256
4.25064
5.04582
5.97833
7.07092
8.34833
9.83514
11.5532
13.5257
15.7781
18.3371
21.2294
24.4799
28.1101
32.1389
36.5811
41.4513
46.7634
52.5284
58.7558
65.4522
72.6206
80.2661
88.3775
96.9466
105.96
115.437
125.364
135.731
146.521
157.72
169.309
181.27
193.586
206.238
219.206
232.472
246.016
259.818
273.859
288.12
302.582
317.226
332.033
346.985
362.061
377.245