/*--------------------------------*- C++ -*----------------------------------*\
  =========                 |
  \\      /  F ield         | OpenFOAM: The Open Source CFD Toolbox
   \\    /   O peration     | Website:  https://openfoam.org
    \\  /    A nd           | Version:  11
     \\/     M anipulation  |
\*---------------------------------------------------------------------------*/
FoamFile
{
    format      ascii;
    class       volVectorField;
    location    "287";
    object      U;
}
// * * * * * * * * * * * * * * * * * * * * * * * * * * * * * * * * * * * * * //

dimensions      [0 1 -1 0 0 0 0];

internalField   nonuniform List<vector> 
12225
(
(9.85699 -0.886638 0)
(9.6663 -0.740719 0)
(9.45579 -0.429421 0)
(9.22455 -0.222147 0)
(9.00655 -0.106401 0)
(8.81446 -0.0458204 0)
(8.64763 -0.0151309 0)
(8.50547 0.000483298 0)
(8.38388 0.00840934 0)
(8.28117 0.0122945 0)
(8.19287 0.0139921 0)
(8.1168 0.0149912 0)
(8.05023 0.0153524 0)
(7.99145 0.015502 0)
(7.93858 0.0156267 0)
(7.89278 0.0152595 0)
(7.83996 0.0180643 0)
(7.83114 0.0101613 0)
(10.0545 0.227708 0)
(10.1213 0.326964 0)
(10.1196 0.26165 0)
(10.0856 0.18659 0)
(10.0435 0.134693 0)
(9.99677 0.101129 0)
(9.94406 0.0792875 0)
(9.88535 0.0645614 0)
(9.82402 0.0542467 0)
(9.76156 0.0466496 0)
(9.70014 0.0408719 0)
(9.6404 0.0363037 0)
(9.58319 0.0326249 0)
(9.52894 0.0297202 0)
(9.47728 0.0271544 0)
(9.42983 0.0260836 0)
(9.3827 0.0226102 0)
(9.34747 0.0310474 0)
(10.0035 0.0581545 0)
(10.0305 0.0559482 0)
(10.056 0.0337727 0)
(10.0704 0.0328839 0)
(10.077 0.0406311 0)
(10.0779 0.0465262 0)
(10.0726 0.0493374 0)
(10.0615 0.0502777 0)
(10.0463 0.0501681 0)
(10.0279 0.0494452 0)
(10.0074 0.048388 0)
(9.98529 0.0472043 0)
(9.96225 0.045989 0)
(9.93873 0.0448709 0)
(9.91499 0.0437457 0)
(9.89176 0.0431665 0)
(9.86873 0.0420716 0)
(9.84703 0.0434265 0)
(9.99772 0.0109481 0)
(10.0111 0.0266175 0)
(10.035 0.0371195 0)
(10.0525 0.0480618 0)
(10.0644 0.0554293 0)
(10.0735 0.0581596 0)
(10.0796 0.058325 0)
(10.0825 0.0575769 0)
(10.0829 0.0565191 0)
(10.0814 0.0553116 0)
(10.0784 0.0540226 0)
(10.0741 0.0527694 0)
(10.0688 0.0515431 0)
(10.0628 0.0504389 0)
(10.0561 0.0493536 0)
(10.0493 0.0486252 0)
(10.0424 0.0476637 0)
(10.0355 0.047454 0)
(9.99935 0.00709932 0)
(10.009 0.0316925 0)
(10.0275 0.0439039 0)
(10.0418 0.0499031 0)
(10.0528 0.0535897 0)
(10.0629 0.0552095 0)
(10.0716 0.0554829 0)
(10.0784 0.0551848 0)
(10.0836 0.0546302 0)
(10.0875 0.0539115 0)
(10.0903 0.0530819 0)
(10.0923 0.0522346 0)
(10.0935 0.0513813 0)
(10.0942 0.0505889 0)
(10.0945 0.0498061 0)
(10.0945 0.0491945 0)
(10.0944 0.0484645 0)
(10.0943 0.0478914 0)
(10.0003 0.00914819 0)
(10.0083 0.0312083 0)
(10.0227 0.04094 0)
(10.035 0.0453789 0)
(10.0451 0.0490168 0)
(10.0548 0.051344 0)
(10.0638 0.0523157 0)
(10.0715 0.0525377 0)
(10.078 0.0523893 0)
(10.0836 0.0520076 0)
(10.0885 0.0514671 0)
(10.0927 0.0508532 0)
(10.0964 0.0501979 0)
(10.0997 0.0495478 0)
(10.1026 0.0488827 0)
(10.1054 0.0482668 0)
(10.108 0.0475601 0)
(10.1106 0.0467601 0)
(10.0005 0.00892237 0)
(10.0071 0.0271082 0)
(10.0191 0.0364098 0)
(10.0302 0.041378 0)
(10.0396 0.0453913 0)
(10.0487 0.0480462 0)
(10.0573 0.0493032 0)
(10.065 0.0497583 0)
(10.0718 0.0498133 0)
(10.078 0.049613 0)
(10.0835 0.0492339 0)
(10.0886 0.0487506 0)
(10.0933 0.0482034 0)
(10.0976 0.0476244 0)
(10.1017 0.0470067 0)
(10.1056 0.0463665 0)
(10.1093 0.0456247 0)
(10.1131 0.0447089 0)
(10.0004 0.0078992 0)
(10.006 0.0233844 0)
(10.0161 0.0327298 0)
(10.0263 0.038087 0)
(10.0352 0.04207 0)
(10.0436 0.0447408 0)
(10.0518 0.046137 0)
(10.0593 0.046753 0)
(10.066 0.046953 0)
(10.0723 0.0468808 0)
(10.078 0.0466137 0)
(10.0834 0.0462192 0)
(10.0885 0.0457402 0)
(10.0932 0.0452009 0)
(10.0977 0.0445998 0)
(10.1021 0.0439316 0)
(10.1064 0.0431448 0)
(10.1105 0.0421698 0)
(10.0004 0.00694921 0)
(10.005 0.0204211 0)
(10.0137 0.0294439 0)
(10.0229 0.0348426 0)
(10.0312 0.0386812 0)
(10.0392 0.0413288 0)
(10.0469 0.0428438 0)
(10.0541 0.0435971 0)
(10.0607 0.0439113 0)
(10.0669 0.0439355 0)
(10.0727 0.0437492 0)
(10.0781 0.0434161 0)
(10.0833 0.0429786 0)
(10.0881 0.0424579 0)
(10.0928 0.0418547 0)
(10.0974 0.041158 0)
(10.1018 0.0403307 0)
(10.1061 0.0393262 0)
(10.0004 0.00612173 0)
(10.0043 0.0178502 0)
(10.0116 0.026262 0)
(10.0199 0.0315583 0)
(10.0277 0.0352701 0)
(10.0352 0.0378807 0)
(10.0425 0.0394736 0)
(10.0494 0.0403279 0)
(10.0558 0.0407267 0)
(10.0618 0.0408219 0)
(10.0675 0.0406944 0)
(10.0729 0.040404 0)
(10.0781 0.0399916 0)
(10.083 0.039478 0)
(10.0877 0.0388658 0)
(10.0923 0.0381452 0)
(10.0966 0.0372901 0)
(10.1009 0.0362775 0)
(10.0003 0.0053634 0)
(10.0037 0.0155387 0)
(10.0099 0.0232204 0)
(10.0173 0.0283182 0)
(10.0245 0.0318871 0)
(10.0315 0.0344199 0)
(10.0384 0.0360364 0)
(10.045 0.0369529 0)
(10.0513 0.0374107 0)
(10.0571 0.0375568 0)
(10.0627 0.0374717 0)
(10.068 0.0372115 0)
(10.0731 0.0368155 0)
(10.0779 0.0363046 0)
(10.0826 0.0356842 0)
(10.0871 0.0349486 0)
(10.0914 0.0340813 0)
(10.0956 0.0330777 0)
(10.0003 0.00469886 0)
(10.0032 0.0135972 0)
(10.0086 0.0205712 0)
(10.0152 0.0254025 0)
(10.0219 0.0288046 0)
(10.0286 0.0312306 0)
(10.0351 0.0328267 0)
(10.0414 0.0337684 0)
(10.0474 0.0342585 0)
(10.0531 0.0344348 0)
(10.0586 0.0343759 0)
(10.0638 0.0341347 0)
(10.0688 0.033749 0)
(10.0735 0.03324 0)
(10.0781 0.0326162 0)
(10.0825 0.0318763 0)
(10.0867 0.0310112 0)
(10.0907 0.0300299 0)
(10.0003 0.00408405 0)
(10.0028 0.0118276 0)
(10.0075 0.0180699 0)
(10.0134 0.0225587 0)
(10.0197 0.0257594 0)
(10.0259 0.0280534 0)
(10.0321 0.0295969 0)
(10.0381 0.0305368 0)
(10.0439 0.0310412 0)
(10.0495 0.0312347 0)
(10.0548 0.0311926 0)
(10.0598 0.0309651 0)
(10.0647 0.0305881 0)
(10.0694 0.0300834 0)
(10.0738 0.0294618 0)
(10.0781 0.0287269 0)
(10.0822 0.027875 0)
(10.0861 0.0269258 0)
(10.0002 0.00344886 0)
(10.0024 0.00998867 0)
(10.0064 0.015387 0)
(10.0117 0.0194083 0)
(10.0174 0.0223241 0)
(10.0232 0.0244263 0)
(10.029 0.0258664 0)
(10.0348 0.0267671 0)
(10.0403 0.0272613 0)
(10.0457 0.0274558 0)
(10.0508 0.0274203 0)
(10.0557 0.0272013 0)
(10.0604 0.0268322 0)
(10.065 0.0263351 0)
(10.0693 0.0257231 0)
(10.0734 0.0250042 0)
(10.0774 0.0241797 0)
(10.0812 0.0232761 0)
(10.0002 0.00278927 0)
(10.002 0.00807877 0)
(10.0055 0.0125331 0)
(10.0101 0.015957 0)
(10.0153 0.0184858 0)
(10.0206 0.020321 0)
(10.0261 0.0215939 0)
(10.0314 0.0224042 0)
(10.0367 0.0228521 0)
(10.0418 0.0230235 0)
(10.0468 0.022979 0)
(10.0515 0.0227604 0)
(10.0561 0.0223977 0)
(10.0604 0.0219123 0)
(10.0646 0.0213192 0)
(10.0686 0.0206292 0)
(10.0724 0.0198478 0)
(10.076 0.0190051 0)
(10.0002 0.00210468 0)
(10.0017 0.00609987 0)
(10.0047 0.00951682 0)
(10.0088 0.0122099 0)
(10.0134 0.0142328 0)
(10.0183 0.0157087 0)
(10.0233 0.0167361 0)
(10.0283 0.0173904 0)
(10.0333 0.017743 0)
(10.0382 0.0178573 0)
(10.0429 0.0177816 0)
(10.0475 0.0175508 0)
(10.0518 0.0171905 0)
(10.056 0.0167202 0)
(10.06 0.0161549 0)
(10.0639 0.0155069 0)
(10.0675 0.0147836 0)
(10.071 0.0140155 0)
(10.0002 0.0013922 0)
(10.0015 0.00403806 0)
(10.0041 0.00632213 0)
(10.0076 0.00815062 0)
(10.0118 0.00953741 0)
(10.0163 0.0105462 0)
(10.0209 0.0112373 0)
(10.0256 0.0116596 0)
(10.0303 0.0118577 0)
(10.035 0.0118728 0)
(10.0394 0.0117378 0)
(10.0438 0.0114782 0)
(10.048 0.0111135 0)
(10.052 0.0106594 0)
(10.0559 0.0101288 0)
(10.0595 0.0095332 0)
(10.063 0.00887986 0)
(10.0663 0.00819697 0)
(10.0001 0.000635556 0)
(10.0013 0.00184169 0)
(10.0036 0.00287723 0)
(10.0068 0.0036995 0)
(10.0107 0.00430959 0)
(10.0148 0.00472938 0)
(10.0192 0.0049817 0)
(10.0236 0.00508642 0)
(10.0281 0.00506291 0)
(10.0325 0.00492959 0)
(10.0368 0.00470219 0)
(10.0409 0.00439367 0)
(10.045 0.00401491 0)
(10.0488 0.00357551 0)
(10.0525 0.003084 0)
(10.056 0.00254882 0)
(10.0593 0.00197511 0)
(10.0625 0.0013864 0)
(10.0001 -0.000208236 0)
(10.0012 -0.00061092 0)
(10.0034 -0.000990705 0)
(10.0065 -0.00133527 0)
(10.0102 -0.00164326 0)
(10.0143 -0.00192912 0)
(10.0185 -0.00221061 0)
(10.0228 -0.00249979 0)
(10.0271 -0.00280386 0)
(10.0313 -0.00312823 0)
(10.0355 -0.00347694 0)
(10.0395 -0.00385205 0)
(10.0434 -0.00425385 0)
(10.0471 -0.00468129 0)
(10.0507 -0.00513244 0)
(10.0541 -0.00560417 0)
(10.0573 -0.00609501 0)
(10.0604 -0.00658826 0)
(10.0001 -0.00101513 0)
(10.0013 -0.00296375 0)
(10.0037 -0.00470781 0)
(10.007 -0.00616428 0)
(10.0108 -0.00732923 0)
(10.015 -0.00826281 0)
(10.0193 -0.00902629 0)
(10.0237 -0.0096616 0)
(10.028 -0.0102028 0)
(10.0323 -0.0106813 0)
(10.0364 -0.0111215 0)
(10.0404 -0.01154 0)
(10.0442 -0.0119473 0)
(10.0479 -0.0123509 0)
(10.0514 -0.0127551 0)
(10.0547 -0.0131622 0)
(10.0579 -0.0135742 0)
(10.0609 -0.0139804 0)
(10.0002 -0.00171082 0)
(10.0015 -0.00501822 0)
(10.0041 -0.00795613 0)
(10.0078 -0.010319 0)
(10.012 -0.0121276 0)
(10.0164 -0.0135322 0)
(10.021 -0.0146389 0)
(10.0255 -0.0155046 0)
(10.03 -0.0161859 0)
(10.0343 -0.0167413 0)
(10.0385 -0.0172149 0)
(10.0425 -0.0176352 0)
(10.0464 -0.018021 0)
(10.0501 -0.0183859 0)
(10.0536 -0.0187389 0)
(10.0569 -0.0190853 0)
(10.06 -0.0194293 0)
(10.063 -0.019764 0)
(10.0002 -0.00237137 0)
(10.0016 -0.00704812 0)
(10.0047 -0.0112024 0)
(10.009 -0.0143823 0)
(10.0137 -0.0166883 0)
(10.0185 -0.0184313 0)
(10.0233 -0.0197711 0)
(10.0281 -0.0207786 0)
(10.0328 -0.021535 0)
(10.0373 -0.0221213 0)
(10.0416 -0.0225939 0)
(10.0456 -0.022989 0)
(10.0495 -0.0233331 0)
(10.0532 -0.0236454 0)
(10.0567 -0.0239389 0)
(10.06 -0.0242211 0)
(10.0632 -0.0244974 0)
(10.0661 -0.0247635 0)
(10.0002 -0.00298916 0)
(10.0018 -0.00910426 0)
(10.0054 -0.0144722 0)
(10.0105 -0.0183707 0)
(10.0159 -0.0211227 0)
(10.0211 -0.0231526 0)
(10.0263 -0.0246155 0)
(10.0314 -0.0256365 0)
(10.0362 -0.0263698 0)
(10.0409 -0.026925 0)
(10.0452 -0.0273586 0)
(10.0494 -0.0277059 0)
(10.0533 -0.0279962 0)
(10.057 -0.0282517 0)
(10.0605 -0.0284866 0)
(10.0639 -0.028709 0)
(10.067 -0.0289244 0)
(10.0699 -0.0291306 0)
(10.0001 -0.0035322 0)
(10.0018 -0.0115597 0)
(10.0062 -0.0179081 0)
(10.0123 -0.0220128 0)
(10.0183 -0.0250854 0)
(10.024 -0.0275006 0)
(10.0296 -0.0291445 0)
(10.035 -0.0301601 0)
(10.0401 -0.0308178 0)
(10.0448 -0.0312821 0)
(10.0493 -0.0316205 0)
(10.0536 -0.0318736 0)
(10.0575 -0.0320749 0)
(10.0613 -0.0322484 0)
(10.0648 -0.0324074 0)
(10.0681 -0.0325591 0)
(10.0712 -0.0327071 0)
(10.0741 -0.0328481 0)
(9.99991 -0.00337546 0)
(10.0016 -0.0149904 0)
(10.0073 -0.0227486 0)
(10.0142 -0.0262622 0)
(10.0206 -0.0288519 0)
(10.0268 -0.0312213 0)
(10.0331 -0.0329469 0)
(10.039 -0.0340394 0)
(10.0444 -0.0347433 0)
(10.0494 -0.0352108 0)
(10.054 -0.0355123 0)
(10.0583 -0.0357018 0)
(10.0623 -0.0358252 0)
(10.0659 -0.0359135 0)
(10.0693 -0.0359846 0)
(10.0725 -0.0360485 0)
(10.0754 -0.0361098 0)
(10.0781 -0.0361672 0)
(9.99859 -0.000382268 0)
(9.99903 -0.0158001 0)
(10.0076 -0.0274439 0)
(10.0166 -0.0325038 0)
(10.0238 -0.0348832 0)
(10.0306 -0.0362427 0)
(10.0376 -0.0369983 0)
(10.0441 -0.0374693 0)
(10.0498 -0.0378217 0)
(10.0549 -0.038072 0)
(10.0595 -0.0382198 0)
(10.0635 -0.03829 0)
(10.0671 -0.0383125 0)
(10.0702 -0.0383087 0)
(10.073 -0.0382934 0)
(10.0754 -0.0382753 0)
(10.0776 -0.0382582 0)
(10.0794 -0.0382398 0)
(9.99487 0.00140535 0)
(9.99287 -0.00812535 0)
(10.006 -0.0203355 0)
(10.0202 -0.0322707 0)
(10.0306 -0.0404804 0)
(10.0392 -0.0441573 0)
(10.0467 -0.0450739 0)
(10.0529 -0.0449338 0)
(10.0577 -0.0444705 0)
(10.0616 -0.0438773 0)
(10.0646 -0.0432352 0)
(10.0667 -0.0426005 0)
(10.0682 -0.0420073 0)
(10.069 -0.0414644 0)
(10.0693 -0.0409803 0)
(10.0692 -0.040553 0)
(10.0687 -0.0401789 0)
(10.0679 -0.039832 0)
(9.9947 -0.0305775 0)
(9.99943 -0.0228511 0)
(10.0146 -0.0026225 0)
(10.0304 -0.00190544 0)
(10.0434 -0.0116596 0)
(10.0533 -0.0209278 0)
(10.0594 -0.0272889 0)
(10.0618 -0.0315186 0)
(10.0615 -0.0342958 0)
(10.059 -0.0359941 0)
(10.055 -0.0369277 0)
(10.0497 -0.0373626 0)
(10.0434 -0.0374889 0)
(10.0364 -0.0374272 0)
(10.0288 -0.0372662 0)
(10.0209 -0.0370638 0)
(10.0127 -0.0368831 0)
(10.0045 -0.0366917 0)
(10.0274 -0.183007 0)
(10.0766 -0.288325 0)
(10.0871 -0.247822 0)
(10.0777 -0.186561 0)
(10.0663 -0.140326 0)
(10.0537 -0.108246 0)
(10.0365 -0.0858996 0)
(10.0145 -0.0704417 0)
(9.98933 -0.0596708 0)
(9.96229 -0.0518947 0)
(9.9343 -0.0460721 0)
(9.90598 -0.0415742 0)
(9.87779 -0.0380177 0)
(9.85007 -0.035141 0)
(9.82307 -0.0327774 0)
(9.79689 -0.0308531 0)
(9.77179 -0.0293336 0)
(9.74778 -0.0285166 0)
(9.93575 0.689541 0)
(9.86827 0.609594 0)
(9.76458 0.380605 0)
(9.62661 0.21741 0)
(9.48586 0.119241 0)
(9.35716 0.0631579 0)
(9.24263 0.0315455 0)
(9.14104 0.0135937 0)
(9.05136 0.00323991 0)
(8.97237 -0.00282082 0)
(8.90245 -0.00637416 0)
(8.84026 -0.00849242 0)
(8.78454 -0.00973888 0)
(8.73442 -0.0104968 0)
(8.68898 -0.0109774 0)
(8.64762 -0.0112535 0)
(8.60942 -0.0114775 0)
(8.57407 -0.0121157 0)
(0.00459237 -0.0106613 -8.30769e-19)
(0.0160096 -0.0172107 7.32069e-19)
(0.0261691 -0.0152131 0)
(0.0327855 -0.00932592 0)
(0.0349092 -0.00236834 0)
(0.0322512 0.00399583 -3.86762e-19)
(0.0258628 0.00893388 0)
(0.0166051 0.0123462 0)
(0.00518045 0.0145133 0)
(-0.00782834 0.0158187 0)
(-0.0220764 0.0166464 2.38375e-19)
(-0.0373995 0.0172812 0)
(-0.0536884 0.0178613 0)
(-0.0708847 0.0184461 0)
(-0.0889622 0.0190451 0)
(-0.107898 0.019657 1.27681e-19)
(-0.127675 0.020267 0)
(-0.148274 0.020866 0)
(-0.169676 0.0214349 0)
(-0.191867 0.0219586 0)
(-0.214814 0.0224083 0)
(-0.238509 0.0227528 0)
(-0.262913 0.0229537 0)
(-0.288015 0.0229708 7.42493e-20)
(-0.313771 0.022776 -7.1025e-20)
(-0.340198 0.0223592 6.81345e-20)
(-0.367323 0.0217823 6.54962e-20)
(-0.39521 0.02121 0)
(-0.423865 0.0206732 0)
(-0.45326 0.0199317 -5.85633e-20)
(-0.483239 0.0204937 -5.59769e-20)
(-0.513536 0.0220074 0)
(-0.544067 0.0227542 0)
(-0.574421 0.025441 -4.92442e-20)
(-0.60527 0.0330014 0)
(-0.637804 0.0411755 0)
(-0.672439 0.0482182 4.64668e-20)
(-0.708308 0.0567574 0)
(-0.74605 0.0703052 4.56317e-20)
(-0.786344 0.0814055 8.99568e-20)
(-0.829291 0.0840911 0)
(-0.869824 0.0989651 0)
(-0.909537 0.0762228 0)
(-0.949602 0.0294604 0)
(-0.982297 0.0307022 0)
(-1.01936 0.0326136 1.15271e-19)
(-1.05835 0.0339122 1.11857e-19)
(-1.09839 0.03433 1.08665e-19)
(-1.13881 0.034396 0)
(-1.1794 0.0342641 -1.02882e-19)
(-1.22001 0.0340386 0)
(-1.26056 0.0337532 9.77962e-20)
(-1.301 0.0334335 9.5479e-20)
(-1.3413 0.0330911 0)
(-1.38143 0.032733 0)
(-1.42138 0.0323636 0)
(-1.46113 0.0319841 8.74288e-20)
(-1.50065 0.0315956 0)
(-1.53994 0.0311973 0)
(-1.57897 0.0307891 0)
(-1.61773 0.0303694 0)
(-1.65619 0.0299374 0)
(-1.69432 0.0294915 0)
(-1.73212 0.0290306 0)
(-1.76954 0.0285534 0)
(-1.80656 0.0280588 -7.41643e-20)
(-1.84315 0.0275457 0)
(-1.87928 0.0270133 0)
(-1.91491 0.0264608 7.06922e-20)
(-1.95 0.0258877 6.96064e-20)
(-1.98453 0.0252934 0)
(-2.01845 0.0246776 -6.75243e-20)
(-2.05172 0.0240402 6.65227e-20)
(-2.08432 0.023381 0)
(-2.11619 0.0227001 -6.45855e-20)
(-2.14729 0.0219977 0)
(-2.1776 0.0212742 0)
(-2.20705 0.0205299 6.18109e-20)
(-2.23563 0.0197653 0)
(-2.26327 0.0189808 -6.00242e-20)
(-2.28995 0.0181771 0)
(-2.31562 0.0173545 5.82696e-20)
(-2.34025 0.0165137 5.74e-20)
(-2.36378 0.0156547 5.6533e-20)
(-2.38619 0.014778 1.11334e-19)
(-2.40744 0.0138834 -1.09601e-19)
(-2.42747 0.0129705 0)
(-2.44626 0.0120375 0)
(-2.46377 0.0110825 0)
(-2.47994 0.0101009 -1.02599e-19)
(-2.49474 0.00908678 -1.00817e-19)
(-2.50812 0.0080328 9.90178e-20)
(-2.52002 0.00692971 0)
(-2.53038 0.00576729 -9.53597e-20)
(-2.53911 0.00454017 -9.34983e-20)
(-2.54617 0.00326321 -9.16154e-20)
(-2.55145 0.00199013 0)
(-2.55483 0.000812338 0)
(-2.55623 -0.00019292 0)
(-2.55621 -0.00108437 -8.37378e-20)
(-2.55467 -0.00195096 0)
(-2.55165 -0.00280503 0)
(-2.54715 -0.00365398 7.7317e-20)
(-2.54116 -0.00449844 0)
(-2.53367 -0.0053382 0)
(-2.52467 -0.00617284 7.04002e-20)
(-2.51416 -0.00700136 0)
(-2.50213 -0.00782355 0)
(-2.48858 -0.00863837 -6.29201e-20)
(-2.47351 -0.00944577 -6.02896e-20)
(-2.45691 -0.0102446 0)
(-2.43879 -0.011035 5.48068e-20)
(-2.41916 -0.0118156 0)
(-2.39801 -0.0125866 -4.90097e-20)
(-2.37535 -0.0133468 0)
(-2.3512 -0.0140963 -4.28745e-20)
(-2.32556 -0.0148339 -3.96721e-20)
(-2.29844 -0.0155598 0)
(-2.26986 -0.0162729 0)
(-2.23983 -0.0169736 0)
(-2.20838 -0.0176613 0)
(-2.17551 -0.0183359 0)
(-2.14127 -0.0189958 0)
(-2.10565 -0.0196411 0)
(-2.06868 -0.0202705 -1.03327e-20)
(-2.0304 -0.0208851 6.13514e-21)
(-1.99082 -0.0214844 0)
(-1.94997 -0.0220704 0)
(-1.90789 -0.0226411 0)
(-1.8646 -0.0231961 0)
(-1.82013 -0.0237349 -3.40029e-20)
(-1.77452 -0.0242582 0)
(-1.7278 -0.0247655 5.47852e-20)
(-1.68001 -0.0252606 -6.57288e-20)
(-1.63119 -0.0257397 0)
(-1.58137 -0.0262027 0)
(-1.53059 -0.0266502 0)
(-1.4789 -0.0270828 1.13665e-19)
(-1.42634 -0.0275004 1.26812e-19)
(-1.37295 -0.0279036 0)
(-1.31878 -0.0282924 1.54699e-19)
(-1.26387 -0.0286672 1.69507e-19)
(-1.20827 -0.0290285 -1.84941e-19)
(-1.15203 -0.0293766 0)
(-1.09518 -0.029712 0)
(-1.03778 -0.0300351 -2.35452e-19)
(-0.979865 -0.0303468 0)
(-0.921483 -0.0306474 0)
(-0.862679 -0.0309382 0)
(-0.803496 -0.0312198 0)
(-0.743976 -0.0314938 3.37081e-19)
(-0.68416 -0.0317608 3.60684e-19)
(-0.62409 -0.0320224 0)
(-0.563804 -0.0322796 4.11955e-19)
(-0.503339 -0.0325339 0)
(-0.442731 -0.032786 0)
(-0.382017 -0.0330369 5.01042e-19)
(-0.321231 -0.0332866 0)
(-0.260407 -0.033538 5.70583e-19)
(-0.199579 -0.0337994 0)
(-0.138781 -0.0340848 0)
(-0.0780517 -0.0343635 6.9508e-19)
(-0.0174465 -0.0344364 0)
(0.0429591 -0.0339127 7.40482e-19)
(0.103237 -0.0329802 0)
(0.163331 -0.0320488 0)
(0.223197 -0.0311716 0)
(0.282831 -0.030344 -6.71591e-19)
(0.342238 -0.0295582 0)
(0.401416 -0.028805 6.44196e-19)
(0.460349 -0.0280742 0)
(0.518999 -0.0273523 0)
(0.577295 -0.0266198 0)
(0.635097 -0.0258446 0)
(0.692203 -0.0249678 0)
(0.747984 -0.0238776 0)
(0.802135 -0.0222996 0)
(0.84976 -0.0195848 -1.13581e-18)
(0.896688 -0.0141574 0)
(0.889816 0.0031047 0)
(0.00480311 -0.032746 1.93643e-18)
(0.0107227 -0.0331303 -1.09877e-18)
(0.0110508 -0.0211736 0)
(0.00837163 -0.00786029 3.45525e-19)
(0.00324905 0.00485757 0)
(-0.00398556 0.0160634 1.35468e-19)
(-0.0133389 0.0252851 -2.48283e-19)
(-0.0247195 0.0325017 -2.29652e-19)
(-0.0380054 0.0379903 0)
(-0.0530023 0.0421734 -1.9695e-19)
(-0.0694866 0.0454725 -9.12117e-20)
(-0.0872726 0.0482233 0)
(-0.106229 0.0506407 0)
(-0.126259 0.0528539 0)
(-0.1473 0.0549239 0)
(-0.169311 0.0568845 -6.43981e-20)
(-0.19227 0.058744 0)
(-0.216164 0.0605111 1.14999e-19)
(-0.240989 0.0621846 0)
(-0.266752 0.0637693 0)
(-0.293456 0.0652646 -9.99169e-20)
(-0.321122 0.0666746 0)
(-0.349762 0.0680066 9.25087e-20)
(-0.379404 0.0692718 -4.46739e-20)
(-0.410062 0.0704985 4.32351e-20)
(-0.441752 0.0717251 -4.19071e-20)
(-0.474471 0.0730225 -4.06841e-20)
(-0.508203 0.0744286 0)
(-0.542922 0.0759524 0)
(-0.57866 0.0775138 3.76e-20)
(-0.61529 0.0790123 -3.67736e-20)
(-0.652802 0.0802805 0)
(-0.691502 0.0811361 0)
(-0.731847 0.0817059 3.45394e-20)
(-0.772908 0.082751 0)
(-0.814237 0.0838969 0)
(-0.855918 0.0843713 -3.32264e-20)
(-0.897901 0.0845096 0)
(-0.939389 0.0844724 3.22374e-20)
(-0.979741 0.0840098 -6.50739e-20)
(-1.01938 0.0828709 0)
(-1.05881 0.0821219 0)
(-1.10015 0.082747 -1.31993e-19)
(-1.14242 0.0844464 -1.29586e-19)
(-1.18551 0.086588 -1.26678e-19)
(-1.22542 0.087597 6.17489e-20)
(-1.26367 0.0878159 -6.08194e-20)
(-1.30108 0.0875134 -1.78278e-19)
(-1.338 0.0868748 1.16335e-19)
(-1.37455 0.0860393 5.71773e-20)
(-1.41078 0.0850842 0)
(-1.44671 0.0840565 -5.50489e-20)
(-1.48236 0.0829816 5.3769e-20)
(-1.5177 0.0818755 0)
(-1.55276 0.0807457 0)
(-1.5875 0.0795968 0)
(-1.62193 0.0784297 -5.05094e-20)
(-1.65603 0.0772443 0)
(-1.68978 0.0760388 9.75931e-20)
(-1.72318 0.0748113 0)
(-1.7562 0.0735592 9.46643e-20)
(-1.78882 0.0722801 0)
(-1.82103 0.0709712 -9.19166e-20)
(-1.85279 0.0696303 0)
(-1.88409 0.0682548 8.93209e-20)
(-1.9149 0.0668428 -4.39093e-20)
(-1.94519 0.0653927 0)
(-1.97494 0.0639029 -8.56573e-20)
(-2.00411 0.0623724 -4.2362e-20)
(-2.03267 0.0608004 -4.17839e-20)
(-2.06061 0.0591863 0)
(-2.08788 0.0575299 -4.04342e-20)
(-2.11445 0.0558312 -4.00989e-20)
(-2.14029 0.0540905 0)
(-2.16538 0.0523084 3.90057e-20)
(-2.18967 0.0504856 -7.67403e-20)
(-2.21314 0.0486233 0)
(-2.23575 0.0467227 -3.73908e-20)
(-2.25747 0.0447852 0)
(-2.27827 0.042812 1.08804e-19)
(-2.29811 0.040805 0)
(-2.31697 0.0387657 -1.056e-19)
(-2.33482 0.0366959 -3.47047e-20)
(-2.35161 0.0345968 3.40451e-20)
(-2.36733 0.0324705 6.70154e-20)
(-2.38194 0.0303184 -6.59315e-20)
(-2.39541 0.0281421 0)
(-2.40771 0.0259424 0)
(-2.41882 0.0237203 0)
(-2.42871 0.0214753 1.84624e-19)
(-2.43736 0.0192063 6.03987e-20)
(-2.44475 0.0169121 -5.92075e-20)
(-2.45087 0.0145916 0)
(-2.45571 0.0122416 -5.67767e-20)
(-2.4593 0.00985502 5.5523e-20)
(-2.46166 0.00743008 5.42575e-20)
(-2.46285 0.00499164 0)
(-2.46299 0.00261214 0)
(-2.46218 0.000379318 0)
(-2.46 -0.00173684 4.89135e-20)
(-2.45641 -0.00381067 0)
(-2.45139 -0.00585502 -9.2357e-20)
(-2.44492 -0.00787814 -1.34096e-19)
(-2.43698 -0.00988062 8.65363e-20)
(-2.42756 -0.0118613 0)
(-2.41665 -0.0138183 4.04053e-20)
(-2.40425 -0.0157496 0)
(-2.39035 -0.0176534 7.4242e-20)
(-2.37495 -0.0195276 -3.57092e-20)
(-2.35805 -0.021371 -3.40856e-20)
(-2.33964 -0.0231815 0)
(-2.31973 -0.0249579 -9.12997e-20)
(-2.29832 -0.0266981 5.75699e-20)
(-2.27542 -0.0284011 2.67635e-20)
(-2.25104 -0.0300649 0)
(-2.22517 -0.0316887 2.31287e-20)
(-2.19783 -0.0332702 6.43994e-20)
(-2.16904 -0.0348086 0)
(-2.1388 -0.0363021 3.55407e-20)
(-2.10713 -0.0377507 3.16484e-20)
(-2.07406 -0.0391532 2.76925e-20)
(-2.03959 -0.0405091 0)
(-2.00375 -0.0418158 0)
(-1.96656 -0.0430721 0)
(-1.92803 -0.0442757 -6.01278e-21)
(-1.8882 -0.0454272 -3.06483e-21)
(-1.8471 -0.0465257 0)
(-1.80474 -0.047573 1.79879e-21)
(-1.76116 -0.0485679 6.26985e-21)
(-1.71639 -0.0495125 0)
(-1.67045 -0.0504061 1.63279e-20)
(-1.62339 -0.051245 4.0142e-20)
(-1.57524 -0.0520235 -2.57618e-20)
(-1.52602 -0.0527485 -2.86219e-20)
(-1.47579 -0.0534236 0)
(-1.42457 -0.0540461 0)
(-1.37241 -0.0546126 0)
(-1.31935 -0.0551252 -5.04592e-20)
(-1.26544 -0.0555845 5.34806e-20)
(-1.2107 -0.0559917 1.19429e-19)
(-1.1552 -0.0563474 -6.60385e-20)
(-1.09897 -0.0566528 6.91711e-20)
(-1.04205 -0.0569088 7.67393e-20)
(-0.984508 -0.0571164 0)
(-0.926369 -0.0572768 0)
(-0.867683 -0.0573911 -9.09941e-20)
(-0.808496 -0.0574609 0)
(-0.748852 -0.0574877 0)
(-0.688794 -0.0574735 2.18392e-19)
(-0.628368 -0.0574202 0)
(-0.567614 -0.0573301 1.19723e-19)
(-0.506574 -0.0572053 -1.28008e-19)
(-0.44529 -0.0570484 0)
(-0.383799 -0.0568617 1.37729e-19)
(-0.322139 -0.056647 0)
(-0.260347 -0.0564069 0)
(-0.198457 -0.0561428 -1.58678e-19)
(-0.136503 -0.0558552 3.27619e-19)
(-0.0745199 -0.0555446 -1.71377e-19)
(-0.0125371 -0.0552117 0)
(0.0494254 -0.0548547 0)
(0.111347 -0.054471 1.79844e-19)
(0.173221 -0.0540137 0)
(0.234975 -0.053355 1.83457e-19)
(0.296529 -0.0525298 0)
(0.35788 -0.0516815 0)
(0.419053 -0.0508533 0)
(0.480044 -0.0500499 1.92549e-19)
(0.540846 -0.0492653 0)
(0.601449 -0.0484899 -1.95454e-19)
(0.661832 -0.0477095 0)
(0.721953 -0.0469032 0)
(0.781738 -0.0460364 3.96508e-19)
(0.841051 -0.0450503 -3.98707e-19)
(0.899683 -0.0438313 0)
(0.957121 -0.0421675 0)
(1.01296 -0.0395233 0)
(1.06425 -0.0349107 1.22729e-18)
(1.11411 -0.0249567 0)
(1.14071 -0.000941188 -8.52199e-19)
(0.000385328 -0.0415311 -7.79832e-22)
(-0.00176017 -0.0285386 1.06946e-18)
(-0.00772204 -0.0101928 0)
(-0.0157026 0.00703063 -4.37825e-19)
(-0.0251829 0.0226394 0)
(-0.0358583 0.0365079 0)
(-0.0477169 0.0485268 3.41864e-23)
(-0.0608497 0.0586798 1.35654e-19)
(-0.0753392 0.0671084 1.27693e-19)
(-0.0912082 0.0740855 1.20772e-19)
(-0.108422 0.0799355 0)
(-0.126909 0.0849645 0)
(-0.146591 0.0894188 -1.03116e-19)
(-0.167395 0.0934784 -1.96245e-19)
(-0.189265 0.0972608 1.87102e-19)
(-0.212158 0.100843 0)
(-0.236052 0.104271 1.71209e-19)
(-0.260933 0.107577 -8.21778e-20)
(-0.286796 0.110782 0)
(-0.313646 0.113905 1.52569e-19)
(-0.341486 0.116963 7.37267e-20)
(-0.370329 0.119969 -1.42946e-19)
(-0.400179 0.122939 -6.93432e-20)
(-0.431044 0.125887 0)
(-0.462917 0.128826 1.3157e-19)
(-0.495792 0.131761 1.28364e-19)
(-0.529631 0.134694 0)
(-0.564345 0.137597 1.22313e-19)
(-0.599806 0.14039 0)
(-0.635893 0.142947 1.16335e-19)
(-0.672474 0.145187 5.66341e-20)
(-0.709446 0.147014 0)
(-0.746805 0.148415 0)
(-0.78453 0.149758 0)
(-0.822215 0.151228 0)
(-0.859506 0.152757 0)
(-0.896277 0.154022 0)
(-0.932535 0.154908 9.74937e-20)
(-0.968008 0.15528 -1.43962e-19)
(-1.00256 0.15479 0)
(-1.03641 0.153287 0)
(-1.06986 0.151595 0)
(-1.10356 0.148468 1.02887e-22)
(-1.13807 0.144571 8.876e-20)
(-1.17294 0.14221 1.73737e-19)
(-1.20713 0.140504 -1.70276e-19)
(-1.24064 0.138952 -8.33678e-20)
(-1.27361 0.137358 8.1943e-20)
(-1.30619 0.135684 -1.69396e-22)
(-1.33848 0.133941 7.87553e-20)
(-1.37053 0.132146 0)
(-1.40236 0.130314 7.59896e-20)
(-1.43398 0.128454 -1.60726e-22)
(-1.46539 0.126571 0)
(-1.49659 0.124669 0)
(-1.52758 0.122745 -7.10778e-20)
(-1.55834 0.120799 0)
(-1.58885 0.118826 0)
(-1.61911 0.116823 6.76663e-20)
(-1.64909 0.114787 1.33619e-19)
(-1.67878 0.112712 -6.59802e-20)
(-1.70815 0.110594 0)
(-1.73719 0.108431 6.40783e-20)
(-1.76587 0.106217 0)
(-1.79416 0.103951 6.19593e-20)
(-1.82204 0.101628 6.13853e-20)
(-1.84949 0.0992481 -1.2075e-19)
(-1.87647 0.0968078 -5.93855e-20)
(-1.90296 0.0943064 0)
(-1.92892 0.0917427 1.15757e-19)
(-1.95433 0.0891163 0)
(-1.97916 0.0864272 1.68934e-19)
(-2.00337 0.0836757 1.10949e-19)
(-2.02693 0.0808625 1.09375e-19)
(-2.04982 0.0779886 -1.07811e-19)
(-2.07199 0.0750556 1.59492e-19)
(-2.09341 0.0720652 0)
(-2.11406 0.0690194 0)
(-2.13389 0.0659205 -1.01603e-19)
(-2.15289 0.0627708 -1.50168e-19)
(-2.171 0.0595731 0)
(-2.18821 0.0563299 4.85466e-20)
(-2.20448 0.0530443 0)
(-2.21978 0.0497188 -1.40751e-19)
(-2.23407 0.0463567 -1.17417e-22)
(-2.24734 0.0429607 1.0361e-22)
(-2.25955 0.0395341 8.89802e-20)
(-2.27067 0.0360796 0)
(-2.28069 0.0326003 -8.56942e-20)
(-2.28956 0.0290991 -4.53749e-23)
(-2.29729 0.0255791 0)
(-2.30384 0.022045 0)
(-2.30922 0.0185038 0)
(-2.31341 0.0149651 7.71083e-20)
(-2.31641 0.0114426 0)
(-2.31822 0.00795538 0)
(-2.31885 0.00452616 0)
(-2.31825 0.0011643 0)
(-2.31637 -0.00216045 0)
(-2.31314 -0.00546933 6.58993e-20)
(-2.30855 -0.00875296 0)
(-2.30256 -0.0120077 6.17534e-20)
(-2.29517 -0.0152316 5.96958e-20)
(-2.28635 -0.0184215 -5.76093e-20)
(-2.27611 -0.0215742 0)
(-2.26441 -0.024686 -5.33479e-20)
(-2.25127 -0.0277537 0)
(-2.23668 -0.030774 -4.89673e-20)
(-2.22062 -0.0337438 4.6732e-20)
(-2.2031 -0.0366604 1.33971e-19)
(-2.18413 -0.0395209 0)
(-2.16369 -0.0423227 1.20175e-19)
(-2.1418 -0.0450631 3.81608e-20)
(-2.11845 -0.0477397 0)
(-2.09366 -0.0503501 6.61206e-20)
(-2.06743 -0.0528919 6.12675e-20)
(-2.03977 -0.0553627 -8.41378e-20)
(-2.01069 -0.0577602 0)
(-1.98021 -0.0600825 -2.27558e-20)
(-1.94833 -0.0623284 -2.02026e-20)
(-1.91509 -0.0644965 -5.37826e-20)
(-1.88048 -0.0665848 0)
(-1.84454 -0.0685908 0)
(-1.80729 -0.0705116 0)
(-1.76873 -0.0723454 -8.07429e-21)
(-1.72891 -0.074091 0)
(-1.68783 -0.0757482 0)
(-1.64554 -0.0773177 -1.11848e-21)
(-1.60206 -0.0788001 -3.8847e-21)
(-1.55741 -0.0801961 0)
(-1.51164 -0.0815048 0)
(-1.46476 -0.0827225 -2.4597e-20)
(-1.41682 -0.0838446 0)
(-1.36784 -0.0848758 3.59941e-20)
(-1.31788 -0.0858193 4.05006e-20)
(-1.26695 -0.0866734 0)
(-1.2151 -0.0874354 0)
(-1.16238 -0.0881064 -5.78457e-20)
(-1.10882 -0.0886878 -1.29946e-21)
(-1.05447 -0.0891812 -1.31328e-21)
(-0.99936 -0.0895877 0)
(-0.943548 -0.089909 -1.63912e-19)
(-0.887072 -0.0901464 0)
(-0.829977 -0.0903017 0)
(-0.772306 -0.0903766 0)
(-0.714103 -0.0903731 1.06348e-19)
(-0.655413 -0.0902933 0)
(-0.596279 -0.0901401 -2.3373e-19)
(-0.536745 -0.0899161 -1.24215e-19)
(-0.476853 -0.0896246 0)
(-0.416645 -0.0892688 -1.36131e-19)
(-0.356163 -0.0888523 0)
(-0.295445 -0.0883783 0)
(-0.23453 -0.0878507 -4.59081e-19)
(-0.173454 -0.0872723 3.16964e-19)
(-0.112254 -0.0866459 0)
(-0.050962 -0.0859746 3.40595e-19)
(0.0103912 -0.0852628 -1.76742e-19)
(0.0717753 -0.0845128 0)
(0.133157 -0.0837245 0)
(0.194505 -0.0828947 0)
(0.255794 -0.0820262 -5.67113e-19)
(0.317013 -0.0811176 0)
(0.378153 -0.0801703 -1.95888e-19)
(0.439178 -0.0791901 0)
(0.500075 -0.0781949 0)
(0.560834 -0.0772067 0)
(0.62144 -0.076229 0)
(0.681878 -0.0752561 0)
(0.742132 -0.0742765 0)
(0.802179 -0.0732711 -4.27378e-19)
(0.861975 -0.0722099 0)
(0.921449 -0.0710416 -2.19305e-19)
(0.980476 -0.0696785 6.62201e-19)
(1.03886 -0.0679584 0)
(1.0962 -0.0655772 0)
(1.15217 -0.0618864 -4.5354e-19)
(1.20485 -0.0556361 -4.60342e-19)
(1.25725 -0.0438174 4.65682e-19)
(1.29709 -0.0189191 4.7975e-19)
(-0.00461082 -0.0338352 -2.97457e-18)
(-0.0124468 -0.0117827 -1.28813e-18)
(-0.0223675 0.0099512 -4.66961e-19)
(-0.0339289 0.0292866 -1.66474e-19)
(-0.0464893 0.0466441 0)
(-0.0597168 0.0622167 2.40953e-19)
(-0.0736548 0.0760542 -1.10151e-19)
(-0.0884363 0.0881938 0)
(-0.104183 0.0987391 -9.71715e-20)
(-0.120982 0.107875 0)
(-0.138877 0.115839 1.76179e-19)
(-0.157871 0.122877 0)
(-0.177944 0.129211 8.06164e-20)
(-0.199062 0.135026 1.54608e-19)
(-0.22119 0.140455 -1.48492e-19)
(-0.244297 0.145599 0)
(-0.268357 0.150526 -1.37679e-19)
(-0.293351 0.155283 0)
(-0.319261 0.159903 0)
(-0.346071 0.164411 -1.24573e-19)
(-0.373762 0.16882 0)
(-0.402313 0.173139 -1.10878e-22)
(-0.43169 0.177366 0)
(-0.461853 0.18149 0)
(-0.492742 0.185489 1.44534e-22)
(-0.524284 0.18932 -1.06192e-19)
(-0.556378 0.192925 -1.03805e-19)
(-0.588898 0.196219 -1.01161e-19)
(-0.6217 0.199115 0)
(-0.654642 0.201522 -1.92397e-19)
(-0.687605 0.203382 0)
(-0.720505 0.204679 -9.12314e-20)
(-0.753308 0.20548 0)
(-0.785958 0.205962 0)
(-0.818312 0.206281 8.44169e-20)
(-0.850226 0.206439 0)
(-0.881639 0.206319 -8.06088e-20)
(-0.912534 0.205833 -9.22697e-24)
(-0.942932 0.204904 1.54419e-19)
(-0.972895 0.203467 -1.51268e-19)
(-1.00256 0.201489 0)
(-1.03207 0.199027 0)
(-1.06163 0.195906 -7.13019e-20)
(-1.09146 0.192484 0)
(-1.12147 0.189431 -6.85154e-20)
(-1.15141 0.18672 6.72034e-20)
(-1.18114 0.184204 6.59333e-20)
(-1.21065 0.181772 0)
(-1.23995 0.179364 -6.35302e-20)
(-1.26909 0.176957 -6.23978e-20)
(-1.29806 0.174541 1.22481e-19)
(-1.3269 0.17211 -6.02627e-20)
(-1.35559 0.169663 -5.92552e-20)
(-1.38415 0.167196 0)
(-1.41256 0.164706 0)