# vtk DataFile Version 2.0
tracks
ASCII
DATASET POLYDATA
POINTS 12065 float
-0.0206 0.000999956 1e-05 -0.02058 0.000999959 1e-05 -0.02056 0.000999965 1e-05 -0.02054 0.000999974
1e-05 -0.02052 0.000999985 1e-05 -0.0205 0.001 1e-05 -0.0202034 0.00100022 1e-05
-0.0199069 0.00100067 1e-05 -0.0196103 0.00100132 1e-05 -0.0193137 0.00100219 1e-05 -0.0190172
0.00100326 1e-05 -0.0187132 0.00100467 1e-05 -0.0184093 0.00100589 1e-05 -0.0181054 0.0010071
1e-05 -0.0178015 0.00100832 1e-05 -0.0174976 0.00100954 1e-05 -0.0172058 0.00101083 1e-05
-0.016914 0.00101194 1e-05 -0.0166222 0.00101304 1e-05 -0.0163305 0.00101414 1e-05 -0.0160387
0.00101523 1e-05 -0.0157586 0.00101638 1e-05 -0.0154784 0.00101746 1e-05 -0.0151983 0.00101858
1e-05 -0.0149182 0.00101973 1e-05 -0.0146381 0.00102092 1e-05 -0.014376 0.0010221 1e-05
-0.0141139 0.00102328 1e-05 -0.0138518 0.0010245 1e-05 -0.0135897 0.00102574 1e-05 -0.0133685
0.00102682 1e-05 -0.0133534 0.00102689 1e-05 -0.0133384 0.00102697 1e-05 -0.0133234 0.00102704
1e-05 -0.0133084 0.00102712 1e-05 -0.0132934 0.00102719 1e-05 -0.0130353 0.00102848 1e-05
-0.0127771 0.00102979 1e-05 -0.0125189 0.00103111 1e-05 -0.0122607 0.00103245 1e-05 -0.0120025
0.00103381 1e-05 -0.0117547 0.00103512 1e-05 -0.0115068 0.00103644 1e-05 -0.0112589 0.00103777
1e-05 -0.0110111 0.0010391 1e-05 -0.0107632 0.00104043 1e-05 -0.0105252 0.00104172 1e-05
-0.0102873 0.001043 1e-05 -0.0100493 0.00104429 1e-05 -0.00981133 0.00104557 1e-05 -0.00957337
0.00104686 1e-05 -0.00934491 0.00104809 1e-05 -0.00911645 0.00104932 1e-05 -0.008888 0.00105055
1e-05 -0.00865954 0.00105178 1e-05 -0.00843108 0.001053 1e-05 -0.00821175 0.00105417 1e-05
-0.00799242 0.00105534 1e-05 -0.00777309 0.00105651 1e-05 -0.00755376 0.00105767 1e-05 -0.00733443
0.00105883 1e-05 -0.00712387 0.00105994 1e-05 -0.0069133 0.00106104 1e-05 -0.00670273 0.00106215
1e-05 -0.00649216 0.00106325 1e-05 -0.0062816 0.00106435 1e-05 -0.00607944 0.00106539 1e-05
-0.00587729 0.00106644 1e-05 -0.00567514 0.00106749 1e-05 -0.00547298 0.00106853 1e-05 -0.00527083
0.00106958 1e-05 -0.00507675 0.00107057 1e-05 -0.00488267 0.00107156 1e-05 -0.0046886 0.00107256
1e-05 -0.00449452 0.00107355 1e-05 -0.00430044 0.00107455 1e-05 -0.00411412 0.0010755 1e-05
-0.0039278 0.00107645 1e-05 -0.00374147 0.00107741 1e-05 -0.00355515 0.00107836 1e-05 -0.00336883
0.00107932 1e-05 -0.00318995 0.00108023 1e-05 -0.00301107 0.00108116 1e-05 -0.00283219 0.00108209
1e-05 -0.00265331 0.00108302 1e-05 -0.00247443 0.00108396 1e-05 -0.0023027 0.00108487 1e-05
-0.00213097 0.00108578 1e-05 -0.00195924 0.00108671 1e-05 -0.00178751 0.00108765 1e-05 -0.00161577
0.0010886 1e-05 -0.0014509 0.00108951 1e-05 -0.00128603 0.00109045 1e-05 -0.00112116 0.00109141
1e-05 -0.00095629 0.00109239 1e-05 -0.000791418 0.00109339 1e-05 -0.000633135 0.00109438 1e-05
-0.000474851 0.0010954 1e-05 -0.000316568 0.00109645 1e-05 -0.000158285 0.00109753 1e-05 0
0.00109864 1e-05 0.000105677 0.00109939 1e-05 0.000211355 0.00110016 1e-05 0.000317032 0.00110093
1e-05 0.000422709 0.00110171 1e-05 0.000528387 0.0011025 1e-05 0.000634886 0.00110329 1e-05
0.000741385 0.00110407 1e-05 0.000847885 0.00110485 1e-05 0.000954384 0.00110562 1e-05 0.00106088
0.00110638 1e-05 0.00116821 0.00110713 1e-05 0.00127554 0.00110787 1e-05 0.00138286 0.0011086
1e-05 0.00149019 0.0011093 1e-05 0.00159752 0.00111 1e-05 0.00170568 0.00111068 1e-05
0.00181384 0.00111135 1e-05 0.001922 0.001112 1e-05 0.00203016 0.00111263 1e-05 0.00213833
0.00111325 1e-05 0.00224733 0.00111385 1e-05 0.00235633 0.00111445 1e-05 0.00246533 0.00111502
1e-05 0.00257434 0.00111559 1e-05 0.00268334 0.00111613 1e-05 0.00279319 0.00111666 1e-05
0.00290304 0.00111718 1e-05 0.00301289 0.00111769 1e-05 0.00312274 0.00111818 1e-05 0.00323259
0.00111866 1e-05 0.00334329 0.00111912 1e-05 0.003454 0.00111957 1e-05 0.0035647 0.00112001
1e-05 0.0036754 0.00112043 1e-05 0.00378611 0.00112084 1e-05 0.00389767 0.00112123 1e-05
0.00400924 0.00112162 1e-05 0.0041208 0.00112199 1e-05 0.00423237 0.00112235 1e-05 0.00434393
0.00112269 1e-05 0.00445636 0.00112301 1e-05 0.00456879 0.00112333 1e-05 0.00468123 0.00112364
1e-05 0.00479366 0.00112393 1e-05 0.00490609 0.0011242 1e-05 0.0050194 0.00112446 1e-05
0.0051327 0.00112471 1e-05 0.00524601 0.00112495 1e-05 0.00535932 0.00112518 1e-05 0.00547262
0.00112539 1e-05 0.00558681 0.00112558 1e-05 0.005701 0.00112577 1e-05 0.00581518 0.00112595
1e-05 0.00592937 0.00112611 1e-05 0.00604356 0.00112626 1e-05 0.00615863 0.00112639 1e-05
0.00627371 0.00112651 1e-05 0.00638878 0.00112663 1e-05 0.00650386 0.00112673 1e-05 0.00661893
0.00112682 1e-05 0.0067349 0.00112689 1e-05 0.00685087 0.00112695 1e-05 0.00696684 0.00112701
1e-05 0.00708281 0.00112705 1e-05 0.00719878 0.00112708 1e-05 0.00731565 0.00112709 1e-05
0.00743252 0.0011271 1e-05 0.00754939 0.00112709 1e-05 0.00766626 0.00112708 1e-05 0.00778313
0.00112705 1e-05 0.00790091 0.001127 1e-05 0.00801869 0.00112695 1e-05 0.00813647 0.00112689
1e-05 0.00825425 0.00112681 1e-05 0.00837203 0.00112672 1e-05 0.00843707 0.00112667 1e-05
0.00850211 0.00112661 1e-05 0.00856715 0.00112655 1e-05 0.00863219 0.00112649 1e-05 0.00869477
0.00112642 1e-05 0.00874892 0.00112636 1e-05 0.00880307 0.0011263 1e-05 0.00885722 0.00112624
1e-05 0.00891136 0.00112617 1e-05 0.00896551 0.0011261 1e-05 0.00908513 0.00112594 1e-05
0.00920475 0.00112577 1e-05 0.00932437 0.00112559 1e-05 0.00944398 0.0011254 1e-05 0.0095636
0.00112519 1e-05 0.00968415 0.00112497 1e-05 0.0098047 0.00112474 1e-05 0.00992525 0.0011245
1e-05 0.0100458 0.00112425 1e-05 0.0101663 0.00112399 1e-05 0.0102878 0.0011237 1e-05
0.0104093 0.00112341 1e-05 0.0105308 0.00112311 1e-05 0.0106523 0.0011228 1e-05 0.0107738
0.00112247 1e-05 0.0108962 0.00112213 1e-05 0.0110186 0.00112177 1e-05 0.0111411 0.00112141
1e-05 0.0112635 0.00112104 1e-05 0.0113859 0.00112065 1e-05 0.0115093 0.00112024 1e-05
0.0116327 0.00111982 1e-05 0.0117561 0.0011194 1e-05 0.0118795 0.00111896 1e-05 0.0120028
0.00111851 1e-05 0.0121272 0.00111804 1e-05 0.0122515 0.00111756 1e-05 0.0123759 0.00111707
1e-05 0.0125002 0.00111656 1e-05 0.0126245 0.00111605 1e-05 0.0127498 0.00111551 1e-05
0.0128752 0.00111496 1e-05 0.0130005 0.00111441 1e-05 0.0131258 0.00111384 1e-05 0.0132511
0.00111325 1e-05 0.0133774 0.00111265 1e-05 0.0135036 0.00111204 1e-05 0.0136299 0.00111141
1e-05 0.0137562 0.00111078 1e-05 0.0138825 0.00111012 1e-05 0.0140098 0.00110946 1e-05
0.014137 0.00110878 1e-05 0.0142643 0.00110808 1e-05 0.0143915 0.00110737 1e-05 0.0145188
0.00110665 1e-05 0.0146471 0.00110592 1e-05 0.0147753 0.00110516 1e-05 0.0149036 0.0011044
1e-05 0.0150318 0.00110362 1e-05 0.0151601 0.00110282 1e-05 0.0152893 0.00110202 1e-05
0.0154186 0.0011012 1e-05 0.0155478 0.00110035 1e-05 0.0156771 0.0010995 1e-05 0.0158063
0.00109863 1e-05 0.0159366 0.00109776 1e-05 0.0160668 0.00109686 1e-05 0.0161971 0.00109594
1e-05 0.0163273 0.00109501 1e-05 0.0164576 0.00109407 1e-05 0.0165889 0.00109312 1e-05
0.0167201 0.00109215 1e-05 0.0168514 0.00109115 1e-05 0.0169827 0.00109014 1e-05 0.0171139
0.00108912 1e-05 0.0172462 0.0010881 1e-05 0.0173785 0.00108705 1e-05 0.0175108 0.00108597
1e-05 0.0176431 0.00108488 1e-05 0.0177754 0.00108378 1e-05 0.0179087 0.00108268 1e-05
0.018042 0.00108154 1e-05 0.0181753 0.00108038 1e-05 0.0183087 0.0010792 1e-05 0.018442
0.00107802 1e-05 0.0185763 0.00107684 1e-05 0.0187107 0.00107562 1e-05 0.018845 0.00107436
1e-05 0.0189794 0.00107309 1e-05 0.0191137 0.00107183 1e-05 0.0192491 0.00107056 1e-05
0.0193845 0.00106925 1e-05 0.0195199 0.0010679 1e-05 0.0196553 0.00106654 1e-05 0.0197907
0.00106518 1e-05 0.0199272 0.00106382 1e-05 0.0200636 0.00106242 1e-05 0.0202001 0.00106099
1e-05 0.0203365 0.00105953 1e-05 0.020473 0.00105808 1e-05 0.0206105 0.00105663 1e-05
0.020748 0.00105513 1e-05 0.0208855 0.0010536 1e-05 0.021023 0.00105205 1e-05 0.0211606
0.0010505 1e-05 0.0212991 0.00104895 1e-05 0.0214377 0.00104736 1e-05 0.0215763 0.00104573
1e-05 0.0217149 0.00104408 1e-05 0.0218535 0.00104243 1e-05 0.0219931 0.00104078 1e-05
0.0221328 0.00103908 1e-05 0.0222724 0.00103734 1e-05 0.0224121 0.00103559 1e-05 0.0225517
0.00103384 1e-05 0.0226925 0.00103207 1e-05 0.0228332 0.00103027 1e-05 0.022974 0.00102842
1e-05 0.0231147 0.00102655 1e-05 0.0232555 0.00102469 1e-05 0.0233973 0.00102281 1e-05
0.0235391 0.0010209 1e-05 0.023681 0.00101894 1e-05 0.0238228 0.00101696 1e-05 0.0239647
0.00101498 1e-05 0.0241076 0.00101298 1e-05 0.0242505 0.00101095 1e-05 0.0243935 0.00100887
1e-05 0.0245364 0.00100677 1e-05 0.0246794 0.00100467 1e-05 0.0248234 0.00100256 1e-05
0.0249675 0.00100039 1e-05 0.0251115 0.000998196 1e-05 0.0252556 0.000995978 1e-05 0.0253996
0.00099375 1e-05 0.0255448 0.000991501 1e-05 0.02569 0.000989208 1e-05 0.0258351 0.000986883
1e-05 0.0259803 0.000984536 1e-05 0.0261255 0.000982173 1e-05 0.0262718 0.000979788 1e-05
0.0264181 0.000977357 1e-05 0.0265644 0.000974897 1e-05 0.0267107 0.000972414 1e-05 0.026857
0.00096991 1e-05 0.0270044 0.00096738 1e-05 0.0271519 0.000964804 1e-05 0.0272993 0.000962203
1e-05 0.0274467 0.000959577 1e-05 0.0275942 0.000956926 1e-05 0.0277428 0.000954246 1e-05
0.0278914 0.000951522 1e-05 0.0280399 0.000948772 1e-05 0.0281885 0.000945997 1e-05 0.0283371
0.000943195 1e-05 0.0284869 0.000940359 1e-05 0.0286366 0.000937481 1e-05 0.0287863 0.000934576
1e-05 0.0289361 0.000931644 1e-05 0.0290858 0.000928685 1e-05 0.0292367 0.000925684 1e-05
0.0293876 0.000922645 1e-05 0.0295385 0.000919577 1e-05 0.0296894 0.000916482 1e-05 0.0298403
0.000913357 1e-05 0.0299901 0.000910233 1e-05 0.0301398 0.000907075 1e-05 0.0302895 0.000903889
1e-05 0.0304392 0.000900674 1e-05 0.0305786 0.000897655 1e-05 0.030583 0.000897558 1e-05
0.0305874 0.000897461 1e-05 0.0305919 0.000897364 1e-05 0.0305963 0.000897267 1e-05 0.0306007
0.00089717 1e-05 0.030754 0.000893818 1e-05 0.0309072 0.000890435 1e-05 0.0310605 0.00088702
1e-05 0.0312138 0.000883574 1e-05 0.031367 0.000880097 1e-05 0.0315215 0.000876567 1e-05
[...]
POINT_DATA 12065
FIELD attributes 4
age 1 12065 float
-9.99973e-06 -7.99975e-06 -5.99979e-06 -3.99984e-06 -1.99991e-06 0 2.96554e-05 5.93049e-05 8.89484e-05 0.000118586 0.000148218
0.000178569 0.000208911 0.00023924 0.000269556 0.000299858 0.000328933 0.000357999 0.000387054 0.000416097 0.000445128
0.000472989 0.000500843 0.000528691 0.000556532 0.000584366 0.000610404 0.000636438 0.000662468 0.000688496 0.000710464
0.000711953 0.000713442 0.000714932 0.000716421 0.00071791 0.000743542 0.000769172 0.000794801 0.000820429 0.000846056
0.000870657 0.000895259 0.000919862 0.000944466 0.000969071 0.000992694 0.00101632 0.00103995 0.00106358 0.00108721
0.0011099 0.00113259 0.00115529 0.00117799 0.00120069 0.0012225 0.0012443 0.00126611 0.00128792 0.00130974
0.00133069 0.00135164 0.0013726 0.00139356 0.00141453 0.00143467 0.0014548 0.00147494 0.00149509 0.00151524
0.0015346 0.00155395 0.00157331 0.00159268 0.00161205 0.00163066 0.00164926 0.00166787 0.00168649 0.00170511
0.001723 0.00174088 0.00175877 0.00177667 0.00179457 0.00181177 0.00182896 0.00184615 0.00186335 0.00188056
0.0018971 0.00191362 0.00193015 0.00194669 0.00196322 0.00197912 0.001995 0.00201088 0.00202676 0.00204265
0.00205327 0.00206387 0.00207448 0.00208508 0.00209569 0.00210639 0.00211707 0.00212776 0.00213844 0.00214913
0.00215991 0.00217068 0.00218145 0.00219222 0.00220299 0.00221386 0.00222472 0.00223558 0.00224644 0.0022573
0.00226826 0.00227921 0.00229016 0.00230112 0.00231208 0.00232314 0.00233419 0.00234524 0.00235629 0.00236735
0.00237852 0.00238967 0.00240082 0.00241199 0.00242315 0.00243442 0.00244568 0.00245695 0.00246822 0.00247949
0.00249088 0.00250225 0.00251363 0.00252502 0.00253641 0.00254791 0.0025594 0.0025709 0.00258241 0.00259392
0.00260555 0.00261717 0.00262879 0.00264043 0.00265207 0.00266382 0.00267557 0.00268733 0.0026991 0.00271087
0.00272276 0.00273465 0.00274654 0.00275845 0.00277037 0.0027824 0.00279442 0.00280646 0.00281851 0.00283058
0.00284275 0.00285493 0.00286712 0.00287932 0.00289154 0.00289829 0.00290504 0.0029118 0.00291857 0.00292508
0.00293071 0.00293635 0.00294199 0.00294764 0.00295329 0.00296577 0.00297827 0.00299078 0.0030033 0.00301584
0.0030285 0.00304117 0.00305385 0.00306654 0.00307925 0.00309209 0.00310493 0.00311778 0.00313065 0.00314354
0.00315657 0.00316959 0.00318262 0.00319568 0.00320874 0.00322196 0.00323517 0.00324839 0.00326163 0.00327488
0.0032883 0.00330169 0.00331511 0.00332854 0.00334199 0.0033556 0.00336919 0.0033828 0.00339643 0.00341008
0.00342389 0.00343768 0.0034515 0.00346533 0.00347917 0.00349319 0.00350719 0.00352121 0.00353524 0.0035493
0.00356353 0.00357774 0.00359196 0.00360621 0.00362048 0.00363492 0.00364935 0.00366379 0.00367825 0.00369273
0.00370739 0.00372204 0.00373669 0.00375137 0.00376608 0.00378095 0.00379582 0.00381069 0.00382559 0.00384052
0.00385562 0.00387071 0.00388581 0.00390092 0.00391608 0.0039314 0.00394672 0.00396204 0.00397739 0.00399277
0.00400832 0.00402386 0.00403941 0.00405498 0.0040706 0.00408637 0.00410215 0.00411793 0.00413373 0.00414957
0.00416558 0.00418159 0.00419761 0.00421364 0.00422972 0.00424596 0.0042622 0.00427845 0.00429473 0.00431103
0.00432751 0.00434399 0.00436048 0.00437699 0.00439354 0.00441025 0.00442697 0.0044437 0.00446045 0.00447723
0.00449418 0.00451114 0.00452811 0.0045451 0.00456213 0.00457932 0.00459652 0.00461374 0.00463097 0.00464824
0.00466567 0.00468312 0.00470059 0.00471807 0.00473558 0.00475326 0.00477096 0.00478867 0.0048064 0.00482416
0.00484209 0.00486004 0.004878 0.00489599 0.004914 0.00493218 0.00495038 0.0049686 0.00498684 0.0050051
0.00502354 0.00504199 0.00506047 0.00507897 0.00509749 0.00511618 0.0051349 0.00515363 0.00517239 0.00519117
0.00521013 0.00522911 0.00524811 0.00526713 0.00528618 0.0053054 0.00532464 0.00534391 0.0053632 0.00538251
0.0054017 0.00542091 0.00544015 0.00545941 0.00547736 0.00547793 0.0054785 0.00547907 0.00547964 0.00548021
0.00549998 0.00551977 0.00553959 0.00555943 0.0055793 0.00559935 0.00561942 0.00563952 0.00565965 0.00567981
0.00570014 0.00572051 0.0057409 0.00576132 0.00578177 0.0058024 0.00582306 0.00584374 0.00586446 0.00588521
0.00590614 0.0059271 0.00594809 0.00596911 0.00599016 0.00601139 0.00603266 0.00605396 0.00607529 0.00609666
0.0061182 0.00613978 0.0061614 0.00618305 0.00620473 0.0062266 0.0062485 0.00627045 0.00629243 0.00631443
0.00633663 0.00635886 0.00638114 0.00640345 0.00642579 0.00644833 0.0064709 0.00649352 0.00651617 0.00653886
0.00656174 0.00658467 0.00660764 0.00663065 0.00665368 0.00667693 0.00670021 0.00672355 0.00674691 0.00677031
0.00679392 0.00681758 0.00684129 0.00686502 0.0068888 0.00691279 0.00693684 0.00696092 0.00698504 0.0070092
0.00703359 0.00705803 0.0070825 0.00710702 0.00713158 0.00715637 0.00718121 0.00720609 0.00723101 0.00725598
0.0072592 0.00726241 0.00726563 0.00726884 0.00727204 0.00729406 0.00731612 0.00733821 0.00736034 0.00738251
0.00740814 0.00743383 0.00745956 0.00748534 0.00751118 0.00753725 0.00756338 0.00758956 0.0076158 0.00764208
0.00766861 0.00769519 0.00772184 0.00774853 0.00777528 0.00780227 0.00782932 0.00785644 0.00788361 0.00791083
0.00793829 0.00796583 0.00799343 0.00802108 0.00804878 0.00807674 0.00810476 0.00813286 0.00816101 0.0081892
0.00821765 0.00824618 0.00827478 0.00830343 0.00833212 0.00836108 0.00839012 0.00841922 0.00844838 0.00847759
0.00850707 0.00853662 0.00856623 0.0085959 0.00862563 0.00865563 0.0086857 0.00871583 0.00874602 0.00877626
0.00880679 0.00883738 0.00886803 0.00889874 0.0089295 0.00893031 0.00893112 0.00893194 0.00893275 0.00893356
0.00896381 0.00899412 0.00902448 0.00905489 0.00908536 0.00911694 0.00914858 0.00918028 0.00921204 0.00924385
0.00927595 0.00930811 0.00934033 0.00937261 0.00940493 0.00943755 0.00947023 0.00950296 0.00953575 0.00956859
0.00960171 0.00963489 0.00966813 0.00970143 0.00973475 0.00976837 0.00980205 0.00983578 0.00986956 0.00990336
0.00993747 0.00997162 0.0100058 0.0100401 0.0100744 0.0101089 0.0101435 0.0101782 0.0102129 0.0102476
0.0102826 0.0103177 0.0103528 0.0103879 0.0104231 0.0104585 0.010494 0.0105296 0.0105651 0.0106007
0.0106365 0.0106724 0.0107084 0.0107443 0.0107803 0.0108165 0.0108528 0.0108891 0.0109254 0.0109617
0.0109984 0.011035 0.0110717 0.0111083 0.011145 0.0111639 0.0111829 0.0112018 0.0112208 0.0112408
0.0112586 0.0112765 0.0112943 0.0113122 0.01133 0.0113673 0.0114047 0.011442 0.0114793 0.0115166
0.0115543 0.0115919 0.0116295 0.0116672 0.0117048 0.0117427 0.0117806 0.0118185 0.0118565 0.0118944
0.0119326 0.0119708 0.012009 0.0120472 0.0120854 0.0121239 0.0121624 0.0122009 0.0122393 0.0122778
0.0123166 0.0123553 0.0123941 0.0124328 0.0124715 0.0125106 0.0125496 0.0125886 0.0126276 0.0126666
0.0127059 0.0127451 0.0127844 0.0128237 0.0128629 0.0129025 0.012942 0.0129816 0.0130211 0.0130606
0.0131004 0.0131402 0.01318 0.0132198 0.0132596 0.0132997 0.0133398 0.0133799 0.0134199 0.01346
0.0135004 0.0135407 0.0135811 0.0136214 0.0136618 0.0137024 0.0137431 0.0137838 0.0138244 0.0138651
0.013906 0.013947 0.013988 0.0140289 0.0140699 0.0141112 0.0141525 0.0141938 0.0142351 0.0142764
0.0143181 0.0143597 0.0144014 0.014443 0.0144847 0.0145267 0.0145687 0.0146108 0.0146528 0.0146949
0.0147201 0.0147452 0.0147703 0.0147955 0.0148174 0.0148354 0.0148533 0.0148713 0.0148892 0.0149072
0.0149501 0.0149929 0.0150358 0.0150787 0.0151217 0.015165 0.0152084 0.0152517 0.0152951 0.0153386
0.0153824 0.0154263 0.0154702 0.0155141 0.0155581 0.0156025 0.0156469 0.0156914 0.0157359 0.0157805
0.0158255 0.0158705 0.0159156 0.0159607 0.016006 0.0160516 0.0160973 0.0161431 0.0161889 0.0162349
0.0162506 0.0162664 0.0162821 0.0162978 0.0163126 0.0163436 0.0163745 0.0164056 0.0164366 0.0164678
0.016515 0.0165622 0.0166096 0.016657 0.0167046 0.0167527 0.0168008 0.0168491 0.0168974 0.016946
0.016995 0.0170442 0.0170934 0.0171428 0.0171924 0.0172218 0.0172513 0.0172808 0.0173103 0.0173372
0.0173586 0.01738 0.0174015 0.017423 0.0174446 0.0174958 0.0175472 0.0175988 0.0176505 0.0177026
0.0177552 0.0178079 0.0178608 0.0179138 0.0179673 0.0180129 0.0180585 0.0181043 0.0181503 0.0181909
0.0182006 0.0182104 0.0182202 0.01823 0.0182398 0.0182954 0.0183512 0.0184072 0.0184634 0.0185203
0.0185776 0.0186352 0.018693 0.0187511 0.0188099 0.0188413 0.0188729 0.0189045 0.0189362 0.0189658
0.0189945 0.0190233 0.0190522 0.0190811 0.0191102 0.0191717 0.0192335 0.0192956 0.019358 0.0194213
0.0194789 0.0195367 0.0195949 0.0196533 0.0197061 0.0197139 0.0197218 0.0197296 0.0197375 0.0197453
0.0198119 0.0198789 0.0199464 0.0200142 0.0200831 0.0201527 0.0202227 0.0202932 0.0203641 0.0204363
0.0204368 0.0204374 0.0204379 0.0204384 0.020439 0.0205114 0.0205842 0.0206576 0.0207316 0.0208067
0.0208826 0.020959 0.021036 0.0211136 0.021185 0.0211872 0.0211895 0.0211917 0.021194 0.0211962
0.0212768 0.0213581 0.0214399 0.0215225 0.0216065 0.0216776 0.0217491 0.0218212 0.0218938 0.0219624
0.021978 0.0219935 0.0220091 0.0220247 0.0220404 0.0221302 0.0222208 0.0223122 0.0224045 0.0224984
0.0225565 0.0226149 0.0226736 0.0227327 0.0227902 0.0228287 0.0228675 0.0229063 0.0229453 0.0229845
0.0230852 0.0231867 0.0232892 0.0233927 0.0234977 0.0235359 0.0235741 0.0236125 0.023651 0.0236892
0.0237589 0.0238289 0.0238994 0.0239704 0.0240419 0.024154 0.0242671 0.0243814 0.0244967 0.0246113
0.0246122 0.0246132 0.0246141 0.0246151 0.024616 0.024735 0.0248551 0.0249763 0.0250986 0.0252219
0.0252965 0.0253714 0.0254468 0.0255225 0.0255992 0.0256512 0.0257034 0.0257557 0.0258082 0.0258608
0.0259924 0.0261252 0.0262591 0.026394 0.0265293 0.0265583 0.0265873 0.0266163 0.0266455 0.0266749
0.0267844 0.0268946 0.0270054 0.027117 0.0272283 0.0273525 0.0274775 0.0276032 0.0277297 0.0278644
0.0278823 0.0279003 0.0279183 0.0279363 0.0279542 0.0281028 0.0282523 0.0284027 0.028554 0.0287043
0.0288025 0.028901 0.0289998 0.029099 0.0292049 0.0292591 0.0293133 0.0293676 0.029422 0.0294762
0.029633 0.0297906 0.0299487 0.0301074 0.0302646 0.0303599 0.0304553 0.0305509 0.0306467 0.0307504
0.0308137 0.030877 0.0309404 0.0310038 0.0310669 0.031229 0.0313914 0.0315541 0.0317171 0.0318783
0.0320152 0.0321522 0.0322893 0.0324265 0.0325832 0.0326057 0.0326281 0.0326506 0.0326731 0.0326955
0.0328598 0.0330241 0.0331884 0.0333527 0.0335152 0.0336796 0.033844 0.0340082 0.0341721 0.0343345
0.0344353 0.034536 0.0346367 0.0347372 0.0348499 0.0349101 0.0349704 0.0350306 0.0350907 0.0351507
0.0353139 0.0354769 0.0356395 0.0358017 0.0359625 0.0361247 0.0362864 0.0364478 0.0366086 0.0367683
0.0369291 0.0370895 0.0372494 0.0374088 0.037567 0.0376216 0.037676 0.0377304 0.0377847 0.0378429
0.0379463 0.0380495 0.0381525 0.0382553 0.0383576 0.0385153 0.0386725 0.0388292 0.0389854 0.0391406
0.0392967 0.0394522 0.0396072 0.0397617 0.0399154 0.0400698 0.0402238 0.0403772 0.04053 0.0406821
0.040835 0.0409873 0.0411391 0.0412904 0.041441 0.0415923 0.0417431 0.0418934 0.0420432 0.0421923
0.0422113 0.0422303 0.0422493 0.0422683 0.0422877 0.0424182 0.0425483 0.042678 0.0428073 0.0429361
0.0430846 0.0432325 0.04338 0.0435269 0.0436733 0.0438204 0.0439671 0.0441132 0.0442589 0.0444041
0.04455 0.0446954 0.0448403 0.0449848 0.0451289 0.0452736 0.0454179 0.0455617 0.0457052 0.0458481
0.0459918 0.0461351 0.0462779 0.0464203 0.0465623 0.046705 0.0468473 0.0469893 0.0471308 0.0472719
0.0474137 0.0475552 0.0476963 0.047837 0.0479773 0.0481183 0.048259 0.0483994 0.0485393 0.0486789
0.0488193 0.0489593 0.049099 0.0492383 0.0493773 0.049517 0.0496565 0.0497956 0.0499344 0.0500728
0.050212 0.050351 0.0504896 0.0506279 0.0507659 0.0508675 0.0509689 0.0510701 0.0511712 0.0512933
0.051326 0.0513588 0.0513915 0.0514242 0.0514569 0.0515953 0.0517335 0.0518715 0.0520092 0.0521466
0.0522849 0.0524229 0.0525607 0.0526982 0.0528355 0.0529737 0.0531117 0.0532494 0.0533869 0.0535242
0.0536624 0.0538004 0.0539382 0.0540758 0.0542132 0.0543515 0.0544896 0.0546275 0.0547652 0.0549027
0.0550412 0.0551793 0.0553172 0.0554547 0.0555919 0.0557243 0.0558564 0.055988 0.0561192 0.05625
0.0563854 0.0565199 0.0566538 0.0567869 0.0569196 0.0570567 0.0571929 0.0573284 0.0574632 0.0575975
0.0577363 0.0578744 0.0580117 0.0581483 0.0582845 0.0584252 0.0585652 0.0587044 0.0588429 0.0589808
0.0591234 0.0592652 0.0594062 0.0595464 0.0596861 0.0598304 0.059974 0.0601167 0.0602586 0.0603999
0.060546 0.0606912 0.0608356 0.0609793 0.0611222 0.06127 0.0614168 0.0615629 0.0617082 0.0618527
0.0620021 0.0621505 0.0622982 0.062445 0.0625911 0.062742 0.062892 0.0630412 0.0631895 0.0633371
0.0634895 0.063641 0.0637916 0.0639413 0.0640903 0.0642441 0.064397 0.0645489 0.0647 0.0648502
0.0649011 0.0649518 0.0650025 0.065053 0.065107 0.0652095 0.0653116 0.0654133 0.0655145 0.0656154
0.0657718 0.0659271 0.0660815 0.0662349 0.0663874 0.0665449 0.0667013 0.0668567 0.0670111 0.0671646
0.0673231 0.0674804 0.0676367 0.067792 0.0679462 0.0681056 0.0682637 0.0684208 0.0685767 0.0687317
0.0688917 0.0690504 0.0692081 0.0693646 0.06952 0.0696806 0.0698399 0.0699979 0.0701548 0.0703106
0.0704715 0.070631 0.0707891 0.0709461 0.0711021 0.0712632 0.071423 0.0715814 0.0717385 0.0718945
0.0720552 0.0722142 0.0723717 0.0725279 0.0726835 0.0728445 0.0730044 0.0731631 0.07332 0.0734748
0.0736334 0.0737891 0.0739423 0.0740944 0.0742466 -9.99997e-06 -7.99997e-06 -5.99998e-06 -3.99998e-06 -1.99999e-06
0 2.96566e-05 5.93127e-05 8.89677e-05 0.000118621 0.000148273 0.000178657 0.000209038 0.000239415 0.000269789
0.000300159 0.00032931 0.000358456 0.000387598 0.000416734 0.000445866 0.000473828 0.000501785 0.000529738 0.000557686
0.000585629 0.000612452 0.00063927 0.000666084 0.000692894 0.000719699 0.00074543 0.000771156 0.000796879 0.000822598
0.000848313 0.000872997 0.000897677 0.000922354 0.000947027 0.000971697 0.000995378 0.00101906 0.00104273 0.0010664
0.00109007 0.00111279 0.00113551 0.00115822 0.00118093 0.00120364 0.00122544 0.00124724 0.00126903 0.00129082
0.00131261 0.00133353 0.00135444 0.00137535 0.00139626 0.00141717 0.00143724 0.00145731 0.00147737 0.00149744
0.0015175 0.00153676 0.00155601 0.00157527 0.00159452 0.00161377 0.00163225 0.00165073 0.00166921 0.00168768
0.00170615 0.00172389 0.00174162 0.00175935 0.00177708 0.0017948 0.00181182 0.00182883 0.00184585 0.00186286
0.00187987 0.0018962 0.00191252 0.00192885 0.00194517 0.00196149 0.00197716 0.00199282 0.00200849 0.00202415
0.00203981 0.00205026 0.00206072 0.00207117 0.00208162 0.00209207 0.0021026 0.00211313 0.00212366 0.00213419
0.00214472 0.00215532 0.00216593 0.00217654 0.00218714 0.00219774 0.00220843 0.00221911 0.0022298 0.00224048
0.00225116 0.00226193 0.00227269 0.00228345 0.00229421 0.00230498 0.00231582 0.00232666 0.00233751 0.00234835
0.00235919 0.00237011 0.00238104 0.00239196 0.00240288 0.0024138 0.00242481 0.00243582 0.00244682 0.00245783
0.00246883 0.00247992 0.00249101 0.0025021 0.00251318 0.00252427 0.00253544 0.00254662 0.00255779 0.00256896
0.00258013 0.00259139 0.00260265 0.0026139 0.00262516 0.00263642 0.00264776 0.0026591 0.00267045 0.00268179
0.00269313 0.00270456 0.00271599 0.00272742 0.00273885 0.00275028 0.00276179 0.00277331 0.00278483 0.00279634
0.00280786 0.00281947 0.00283107 0.00284268 0.00285428 0.00286589 0.00287758 0.00288928 0.00290097 0.00291266
0.00292436 0.00293614 0.00294793 0.00295971 0.00297149 0.00298328 0.00299515 0.00300703 0.0030189 0.00303078
0.00304265 0.00305462 0.00306658 0.00307855 0.00309052 0.00310248 0.00311454 0.0031266 0.00313866 0.00315071
0.00316277 0.00317492 0.00318707 0.00319922 0.00321137 0.00322352 0.00323577 0.00324801 0.00326025 0.0032725
0.00328474 0.00329708 0.00330942 0.00332176 0.00333409 0.00334643 0.00335886 0.0033713 0.00338373 0.00339616
0.00340859 0.00342112 0.00343365 0.00344618 0.0034587 0.00347123 0.00348386 0.00349648 0.0035091 0.00352173
0.00353435 0.00354707 0.00355979 0.00357251 0.00358523 0.00359795 0.00361077 0.00362359 0.00363641 0.00364923
0.00366204 0.00367496 0.00368788 0.00370079 0.00371371 0.00372662 0.00373723 0.00374784 0.00375845 0.00376906
0.00377955 0.00378198 0.00378441 0.00378684 0.00378927 0.0037917 0.00380482 0.00381793 0.00383105 0.00384416
0.00385727 0.00387049 0.00388371 0.00389692 0.00391014 0.00392335 0.00393667 0.00394999 0.0039633 0.00397662
0.00398994 0.00400336 0.00401678 0.0040302 0.00404361 0.00405703 0.00407056 0.00408408 0.0040976 0.00411112
0.00412465 0.00413827 0.0041519 0.00416553 0.00417915 0.00419278 0.00420651 0.00422024 0.00423397 0.00424771
0.00426144 0.00427528 0.00428912 0.00430295 0.00431679 0.00433063 0.00434458 0.00435852 0.00437247 0.00438641
0.00440036 0.00441441 0.00442847 0.00444252 0.00445657 0.00447063 0.00448479 0.00449896 0.00451312 0.00452728
0.00454145 0.00455573 0.00457 0.00458428 0.00459855 0.00461283 0.00462722 0.0046416 0.00465599 0.00467038
0.00468477 0.00469927 0.00471377 0.00472827 0.00474277 0.00475728 0.00477189 0.00478651 0.00480113 0.00481574
0.00483036 0.0048451 0.00485983 0.00487457 0.0048893 0.00490404 0.00491889 0.00493375 0.0049486 0.00496345
0.0049783 0.00499328 0.00500825 0.00502323 0.0050382 0.00505318 0.00506827 0.00508337 0.00509846 0.00511356
0.00512866 0.00514388 0.0051591 0.00517432 0.00518954 0.00520477 0.00522012 0.00523546 0.00525081 0.00526616
0.00528151 0.00529699 0.00531246 0.00532794 0.00534342 0.0053589 0.0053745 0.00539011 0.00540572 0.00542133
0.00543694 0.00545268 0.00546842 0.00548417 0.00549991 0.00551566 0.00553154 0.00554741 0.00556329 0.00557917
0.00559506 0.0056019 0.00560874 0.00561558 0.00562242 0.00562919 0.00563838 0.00564758 0.00565677 0.00566597
0.00567517 0.00569133 0.00570749 0.00572365 0.00573982 0.00575599 0.0057723 0.00578861 0.00580492 0.00582124
0.00583755 0.00585402 0.00587048 0.00588694 0.00590341 0.00591988 0.00593651 0.00595312 0.00596974 0.00598636
0.00600299 0.00601979 0.00603657 0.00605334 0.00607013 0.00608693 0.0061039 0.00612084 0.00613778 0.00615473
0.0061717 0.00618885 0.00620598 0.00622309 0.0062402 0.00625736 0.00627469 0.00629199 0.00630928 0.00632657
0.00634391 0.00636143 0.00637893 0.0063964 0.00641388 0.00643141 0.00644913 0.00646682 0.00648449 0.00650217
0.0065199 0.00653782 0.00655571 0.00657358 0.00659147 0.0066094 0.00662752 0.00664563 0.00666371 0.00668181
0.00669996 0.0067183 0.00673662 0.00675493 0.00677325 0.00679162 0.00681018 0.00682873 0.00684727 0.00686584
0.00688443 0.00690322 0.006922 0.00694079 0.00695959 0.00697843 0.00699746 0.00701647 0.00703551 0.00705457
0.00707366 0.00709293 0.00711221 0.00713151 0.00715083 0.00717017 0.00718971 0.00720925 0.00722881 0.0072484
0.00726801 0.00728357 0.00729913 0.00731472 0.00733031 0.00734602 0.00735026 0.00735451 0.00735875 0.007363
0.00736725 0.00738732 0.00740742 0.00742755 0.0074477 0.00746788 0.00748825 0.00750864 0.00752906 0.00754951
0.00756998 0.00759066 0.00761135 0.00763207 0.00765282 0.0076736 0.00769459 0.00771559 0.00773663 0.00775769
0.00777878 0.00780009 0.00782141 0.00784276 0.00786414 0.00788556 0.00790719 0.00792884 0.00795051 0.00797222
0.00799397 0.00801593 0.00803792 0.00805992 0.00808196 0.00810404 0.00812635 0.00814867 0.00817101 0.00819339
0.00821582 0.00823846 0.00826113 0.00828382 0.00830654 0.00832931 0.0083523 0.00837532 0.00839835 0.00842142
0.00844454 0.00846788 0.00849125 0.00851464 0.00853806 0.00856152 0.00858522 0.00860893 0.00863268 0.00865645
0.00868027 0.00870431 0.00872838 0.00875248 0.00877661 0.00880078 0.00882517 0.0088496 0.00887405 0.00889853
0.00892305 0.00894779 0.00897257 0.00899737 0.0090222 0.00904707 0.00907216 0.00909729 0.00912244 0.00914762
0.00917283 0.00919827 0.00922374 0.00924924 0.00927476 0.00930031 0.0093261 0.00935191 0.00937775 0.00940361
0.0094295 0.00944849 0.00946749 0.0094865 0.00950553 0.00952396 0.00953125 0.00953853 0.00954582 0.00955311
0.0095604 0.00958685 0.00961334 0.00963984 0.00966638 0.00969293 0.00971972 0.00974653 0.00977337 0.00980023
0.00982712 0.00985423 0.00988137 0.00990853 0.00993572 0.00996293 0.00999037 0.0100178 0.0100453 0.0100728
0.0101004 0.0101281 0.0101559 0.0101837 0.0102115 0.0102394 0.0102675 0.0102956 0.0103237 0.0103518
0.01038 0.0104084 0.0104368 0.0104653 0.0104937 0.0105222 0.0105509 0.0105797 0.0106084 0.0106372