# vtk DataFile Version 2.0
tracks
ASCII
DATASET POLYDATA
POINTS 12030 float
-0.0206 0.000999956 1e-05 -0.02058 0.000999959 1e-05 -0.02056 0.000999965 1e-05 -0.02054 0.000999974
1e-05 -0.02052 0.000999985 1e-05 -0.0205 0.001 1e-05 -0.0202034 0.00100022 1e-05
-0.0199069 0.00100067 1e-05 -0.0196103 0.00100133 1e-05 -0.0193137 0.00100219 1e-05 -0.0190172
0.00100326 1e-05 -0.0187132 0.00100467 1e-05 -0.0184093 0.00100589 1e-05 -0.0181054 0.00100711
1e-05 -0.0178015 0.00100832 1e-05 -0.0174976 0.00100954 1e-05 -0.0172058 0.00101083 1e-05
-0.016914 0.00101193 1e-05 -0.0166222 0.00101303 1e-05 -0.0163305 0.00101413 1e-05 -0.0160387
0.00101523 1e-05 -0.0157586 0.00101636 1e-05 -0.0154784 0.00101744 1e-05 -0.0151983 0.00101856
1e-05 -0.0149182 0.00101971 1e-05 -0.0146381 0.0010209 1e-05 -0.0143744 0.00102209 1e-05
-0.0141108 0.00102327 1e-05 -0.0138471 0.00102449 1e-05 -0.0135834 0.00102574 1e-05 -0.0133608
0.00102682 1e-05 -0.0133473 0.00102688 1e-05 -0.0133338 0.00102695 1e-05 -0.0133204 0.00102702
1e-05 -0.0133069 0.00102708 1e-05 -0.0132934 0.00102715 1e-05 -0.0130353 0.00102844 1e-05
-0.0127771 0.00102974 1e-05 -0.0125189 0.00103106 1e-05 -0.0122607 0.00103239 1e-05 -0.0120025
0.00103374 1e-05 -0.0117547 0.00103505 1e-05 -0.0115068 0.00103637 1e-05 -0.0112589 0.00103769
1e-05 -0.0110111 0.00103901 1e-05 -0.0107632 0.00104034 1e-05 -0.0105252 0.00104161 1e-05
-0.0102873 0.00104289 1e-05 -0.0100493 0.00104417 1e-05 -0.00981133 0.00104545 1e-05 -0.00957337
0.00104672 1e-05 -0.00934491 0.00104794 1e-05 -0.00911645 0.00104917 1e-05 -0.008888 0.00105038
1e-05 -0.00865954 0.0010516 1e-05 -0.00843108 0.00105281 1e-05 -0.00821175 0.00105397 1e-05
-0.00799242 0.00105512 1e-05 -0.00777309 0.00105628 1e-05 -0.00755376 0.00105742 1e-05 -0.00733443
0.00105857 1e-05 -0.00712387 0.00105966 1e-05 -0.0069133 0.00106075 1e-05 -0.00670273 0.00106183
1e-05 -0.00649216 0.00106291 1e-05 -0.0062816 0.00106399 1e-05 -0.00607944 0.00106501 1e-05
-0.00587729 0.00106604 1e-05 -0.00567514 0.00106706 1e-05 -0.00547298 0.00106807 1e-05 -0.00527083
0.00106908 1e-05 -0.00507675 0.00107004 1e-05 -0.00488267 0.00107101 1e-05 -0.0046886 0.00107196
1e-05 -0.00449452 0.00107292 1e-05 -0.00430044 0.00107387 1e-05 -0.00411412 0.00107477 1e-05
-0.0039278 0.00107568 1e-05 -0.00374147 0.00107658 1e-05 -0.00355515 0.00107748 1e-05 -0.00336883
0.00107837 1e-05 -0.00318995 0.00107922 1e-05 -0.00301107 0.00108007 1e-05 -0.00283219 0.00108092
1e-05 -0.00265331 0.00108176 1e-05 -0.00247443 0.00108261 1e-05 -0.0023027 0.00108341 1e-05
-0.00213097 0.00108421 1e-05 -0.00195924 0.00108502 1e-05 -0.0017875 0.00108582 1e-05 -0.00161577
0.00108661 1e-05 -0.0014509 0.00108737 1e-05 -0.00128603 0.00108813 1e-05 -0.00112116 0.00108889
1e-05 -0.000956289 0.00108965 1e-05 -0.000791418 0.00109041 1e-05 -0.000633135 0.00109114 1e-05
-0.000474851 0.00109186 1e-05 -0.000316567 0.00109259 1e-05 -0.000158284 0.00109331 1e-05 0
0.00109403 1e-05 0.000105677 0.00109451 1e-05 0.000211355 0.00109498 1e-05 0.000317032 0.00109546
1e-05 0.00042271 0.00109593 1e-05 0.000528387 0.00109639 1e-05 0.000634886 0.00109686 1e-05
0.000741385 0.00109732 1e-05 0.000847885 0.00109778 1e-05 0.000954384 0.00109823 1e-05 0.00106088
0.00109869 1e-05 0.00116821 0.00109914 1e-05 0.00127554 0.00109959 1e-05 0.00138286 0.00110003
1e-05 0.00149019 0.00110046 1e-05 0.00159752 0.0011009 1e-05 0.00170568 0.00110132 1e-05
0.00181384 0.00110174 1e-05 0.001922 0.00110216 1e-05 0.00203016 0.00110256 1e-05 0.00213833
0.00110296 1e-05 0.00224733 0.00110334 1e-05 0.00235633 0.00110373 1e-05 0.00246533 0.0011041
1e-05 0.00257434 0.00110447 1e-05 0.00268334 0.00110483 1e-05 0.00279319 0.00110517 1e-05
0.00290304 0.00110552 1e-05 0.00301289 0.00110586 1e-05 0.00312274 0.00110619 1e-05 0.00323259
0.00110651 1e-05 0.00334329 0.00110682 1e-05 0.003454 0.00110713 1e-05 0.0035647 0.00110743
1e-05 0.0036754 0.00110772 1e-05 0.00378611 0.00110801 1e-05 0.00389767 0.00110828 1e-05
0.00400924 0.00110856 1e-05 0.0041208 0.00110882 1e-05 0.00423237 0.00110908 1e-05 0.00434393
0.00110933 1e-05 0.00445636 0.00110957 1e-05 0.00456879 0.00110981 1e-05 0.00468123 0.00111004
1e-05 0.00479366 0.00111026 1e-05 0.00490609 0.00111047 1e-05 0.0050194 0.00111068 1e-05
0.0051327 0.00111087 1e-05 0.00524601 0.00111107 1e-05 0.00535931 0.00111125 1e-05 0.00547262
0.00111143 1e-05 0.00558681 0.0011116 1e-05 0.005701 0.00111176 1e-05 0.00581518 0.00111191
1e-05 0.00592937 0.00111206 1e-05 0.00604356 0.0011122 1e-05 0.00615863 0.00111233 1e-05
0.00627371 0.00111246 1e-05 0.00638878 0.00111258 1e-05 0.00650386 0.00111269 1e-05 0.00661893
0.00111279 1e-05 0.0067349 0.00111289 1e-05 0.00685087 0.00111298 1e-05 0.00696684 0.00111306
1e-05 0.00708281 0.00111314 1e-05 0.00719878 0.0011132 1e-05 0.00727038 0.00111324 1e-05
0.00734197 0.00111327 1e-05 0.00741357 0.0011133 1e-05 0.00748517 0.00111333 1e-05 0.00755439
0.00111336 1e-05 0.00760014 0.00111337 1e-05 0.00764589 0.00111338 1e-05 0.00769164 0.0011134
1e-05 0.00773739 0.00111341 1e-05 0.00778313 0.00111342 1e-05 0.00790091 0.00111344 1e-05
0.00801869 0.00111345 1e-05 0.00813647 0.00111346 1e-05 0.00825425 0.00111346 1e-05 0.00837203
0.00111345 1e-05 0.00849073 0.00111343 1e-05 0.00860942 0.0011134 1e-05 0.00872812 0.00111337
1e-05 0.00884682 0.00111333 1e-05 0.00896551 0.00111328 1e-05 0.00908513 0.00111322 1e-05
0.00920475 0.00111315 1e-05 0.00932437 0.00111308 1e-05 0.00944398 0.001113 1e-05 0.0095636
0.00111291 1e-05 0.00968415 0.00111281 1e-05 0.0098047 0.0011127 1e-05 0.00992525 0.00111259
1e-05 0.0100458 0.00111247 1e-05 0.0101663 0.00111234 1e-05 0.0102878 0.00111219 1e-05
0.0104093 0.00111204 1e-05 0.0105308 0.00111188 1e-05 0.0106523 0.00111172 1e-05 0.0107738
0.00111155 1e-05 0.0108962 0.00111135 1e-05 0.0110186 0.00111116 1e-05 0.0111411 0.00111096
1e-05 0.0112635 0.00111076 1e-05 0.0113859 0.00111054 1e-05 0.0115093 0.0011103 1e-05
0.0116327 0.00111007 1e-05 0.0117561 0.00110983 1e-05 0.0118795 0.00110958 1e-05 0.0120028
0.00110932 1e-05 0.0121272 0.00110903 1e-05 0.0122515 0.00110875 1e-05 0.0123759 0.00110846
1e-05 0.0125002 0.00110817 1e-05 0.0126245 0.00110786 1e-05 0.0127498 0.00110753 1e-05
0.0128752 0.00110721 1e-05 0.0130005 0.00110687 1e-05 0.0131258 0.00110653 1e-05 0.0132511
0.00110618 1e-05 0.0133774 0.0011058 1e-05 0.0135036 0.00110543 1e-05 0.0136299 0.00110505
1e-05 0.0137562 0.00110466 1e-05 0.0138825 0.00110426 1e-05 0.0140098 0.00110384 1e-05
0.014137 0.00110342 1e-05 0.0142643 0.00110299 1e-05 0.0143915 0.00110255 1e-05 0.0145188
0.0011021 1e-05 0.0146471 0.00110164 1e-05 0.0147753 0.00110116 1e-05 0.0149036 0.00110069
1e-05 0.0150318 0.0011002 1e-05 0.0151601 0.0010997 1e-05 0.0152893 0.00109919 1e-05
0.0154186 0.00109866 1e-05 0.0155478 0.00109814 1e-05 0.0156771 0.0010976 1e-05 0.0158063
0.00109705 1e-05 0.0159366 0.00109649 1e-05 0.0160668 0.00109592 1e-05 0.0161971 0.00109534
1e-05 0.0163273 0.00109475 1e-05 0.0164576 0.00109415 1e-05 0.0165889 0.00109354 1e-05
0.0167201 0.00109292 1e-05 0.0168514 0.00109229 1e-05 0.0169827 0.00109165 1e-05 0.0171139
0.00109101 1e-05 0.0172462 0.00109035 1e-05 0.0173785 0.00108968 1e-05 0.0175108 0.001089
1e-05 0.0176431 0.00108831 1e-05 0.0177754 0.00108761 1e-05 0.0179087 0.0010869 1e-05
0.018042 0.00108618 1e-05 0.0181753 0.00108545 1e-05 0.0183087 0.00108471 1e-05 0.018442
0.00108396 1e-05 0.0185763 0.00108321 1e-05 0.0187107 0.00108244 1e-05 0.018845 0.00108165
1e-05 0.0189794 0.00108086 1e-05 0.0191137 0.00108006 1e-05 0.0192491 0.00107926 1e-05
0.0193845 0.00107844 1e-05 0.0195199 0.0010776 1e-05 0.0196553 0.00107675 1e-05 0.0197907
0.00107591 1e-05 0.0199272 0.00107506 1e-05 0.0200636 0.00107419 1e-05 0.0202001 0.0010733
1e-05 0.0203365 0.00107239 1e-05 0.020473 0.0010715 1e-05 0.0206105 0.0010706 1e-05
0.020748 0.00106968 1e-05 0.0208855 0.00106874 1e-05 0.021023 0.00106779 1e-05 0.0211606
0.00106684 1e-05 0.0212991 0.0010659 1e-05 0.0214377 0.00106492 1e-05 0.0215763 0.00106393
1e-05 0.0217149 0.00106293 1e-05 0.0218535 0.00106193 1e-05 0.0219931 0.00106094 1e-05
0.0221328 0.00105992 1e-05 0.0222724 0.00105887 1e-05 0.0224121 0.00105782 1e-05 0.0225517
0.00105677 1e-05 0.0226925 0.00105572 1e-05 0.0228332 0.00105465 1e-05 0.022974 0.00105356
1e-05 0.0231147 0.00105245 1e-05 0.0232555 0.00105135 1e-05 0.0233973 0.00105026 1e-05
0.0235391 0.00104913 1e-05 0.023681 0.00104798 1e-05 0.0238228 0.00104683 1e-05 0.0239647
0.00104568 1e-05 0.0241076 0.00104453 1e-05 0.0242505 0.00104336 1e-05 0.0243935 0.00104216
1e-05 0.0245364 0.00104095 1e-05 0.0246794 0.00103975 1e-05 0.0248234 0.00103855 1e-05
0.0249675 0.00103732 1e-05 0.0251115 0.00103607 1e-05 0.0252556 0.00103481 1e-05 0.0253996
0.00103355 1e-05 0.0255448 0.0010323 1e-05 0.02569 0.00103102 1e-05 0.0258351 0.00102972
1e-05 0.0259803 0.00102841 1e-05 0.0261255 0.0010271 1e-05 0.0262718 0.0010258 1e-05
0.0264181 0.00102447 1e-05 0.0265644 0.00102311 1e-05 0.0267107 0.00102175 1e-05 0.026857
0.00102039 1e-05 0.0270044 0.00101903 1e-05 0.0271519 0.00101764 1e-05 0.0272993 0.00101623
1e-05 0.0274468 0.00101482 1e-05 0.0275942 0.0010134 1e-05 0.0277428 0.00101199 1e-05
0.0278914 0.00101054 1e-05 0.0280399 0.00100908 1e-05 0.0281885 0.00100761 1e-05 0.0283371
0.00100614 1e-05 0.0284869 0.00100467 1e-05 0.0286366 0.00100316 1e-05 0.0287863 0.00100165
1e-05 0.0289361 0.00100012 1e-05 0.0290858 0.000998594 1e-05 0.0292367 0.000997062 1e-05
0.0293876 0.0009955 1e-05 0.0295385 0.000993926 1e-05 0.0296894 0.000992344 1e-05 0.0298403
0.000990755 1e-05 0.0299924 0.000989162 1e-05 0.0301445 0.000987538 1e-05 0.0302966 0.000985906
1e-05 0.0304486 0.000984265 1e-05 0.0306007 0.000982615 1e-05 0.030754 0.000980958 1e-05
0.0309072 0.000979275 1e-05 0.0310605 0.000977582 1e-05 0.0312138 0.000975879 1e-05 0.031367
0.000974168 1e-05 0.0315215 0.000972446 1e-05 0.0316759 0.000970699 1e-05 0.0318304 0.000968943
1e-05 0.0319848 0.000967177 1e-05 0.0321393 0.000965401 1e-05 0.0322949 0.000963612 1e-05
0.0324506 0.0009618 1e-05 0.0326062 0.000959978 1e-05 0.0327619 0.000958146 1e-05 0.0329175
[...]
POINT_DATA 12030
FIELD attributes 4
age 1 12030 float
-9.99973e-06 -7.99975e-06 -5.99979e-06 -3.99984e-06 -1.99991e-06 0 2.96554e-05 5.93049e-05 8.89483e-05 0.000118586 0.000148217
0.000178568 0.00020891 0.000239239 0.000269555 0.000299856 0.00032893 0.000357996 0.000387051 0.000416093 0.000445124
0.000472985 0.000500839 0.000528686 0.000556526 0.00058436 0.000610553 0.000636742 0.000662928 0.00068911 0.000711219
0.000712555 0.000713891 0.000715228 0.000716564 0.0007179 0.000743531 0.00076916 0.000794788 0.000820415 0.00084604
0.000870641 0.000895241 0.000919842 0.000944445 0.000969048 0.000992669 0.00101629 0.00103992 0.00106354 0.00108717
0.00110986 0.00113255 0.00115525 0.00117794 0.00120065 0.00122245 0.00124425 0.00126605 0.00128786 0.00130967
0.00133062 0.00135157 0.00137252 0.00139348 0.00141444 0.00143457 0.0014547 0.00147484 0.00149498 0.00151512
0.00153448 0.00155382 0.00157317 0.00159253 0.00161189 0.0016305 0.00164909 0.00166769 0.0016863 0.00170491
0.00172279 0.00174066 0.00175854 0.00177642 0.0017943 0.00181149 0.00182867 0.00184585 0.00186304 0.00188023
0.00189675 0.00191326 0.00192977 0.00194629 0.00196281 0.00197869 0.00199456 0.00201043 0.0020263 0.00204218
0.00205279 0.00206339 0.00207399 0.0020846 0.0020952 0.00210591 0.0021166 0.00212729 0.00213799 0.00214869
0.00215948 0.00217026 0.00218105 0.00219183 0.00220262 0.00221351 0.00222439 0.00223527 0.00224615 0.00225703
0.00226801 0.00227898 0.00228996 0.00230093 0.00231191 0.00232299 0.00233406 0.00234513 0.00235621 0.00236728
0.00237846 0.00238963 0.00240081 0.00241198 0.00242316 0.00243445 0.00244572 0.002457 0.00246828 0.00247957
0.00249095 0.00250234 0.00251372 0.00252511 0.00253651 0.002548 0.0025595 0.002571 0.0025825 0.00259401
0.00260562 0.00261723 0.00262884 0.00264046 0.00265209 0.00266382 0.00267554 0.00268728 0.00269902 0.00271077
0.00272262 0.00273447 0.00274633 0.0027582 0.00277007 0.00277741 0.00278474 0.00279209 0.00279943 0.00280653
0.00281123 0.00281593 0.00282063 0.00282533 0.00283003 0.00284214 0.00285425 0.00286638 0.00287851 0.00289065
0.00290291 0.00291516 0.00292743 0.0029397 0.00295198 0.00296439 0.00297679 0.0029892 0.00300162 0.00301405
0.00302661 0.00303916 0.00305172 0.0030643 0.00307688 0.0030896 0.00310231 0.00311502 0.00312775 0.00314049
0.00315338 0.00316625 0.00317913 0.00319201 0.00320492 0.00321798 0.00323101 0.00324405 0.00325711 0.00327018
0.00328342 0.00329662 0.00330983 0.00332306 0.0033363 0.00334972 0.0033631 0.00337649 0.00338989 0.00340331
0.00341691 0.00343047 0.00344404 0.00345763 0.00347123 0.00348502 0.00349876 0.00351252 0.00352629 0.00354008
0.00355406 0.003568 0.00358195 0.00359591 0.0036099 0.00362407 0.00363821 0.00365235 0.00366651 0.0036807
0.00369507 0.00370941 0.00372375 0.0037381 0.00375249 0.00376707 0.00378161 0.00379615 0.00381071 0.00382531
0.00384009 0.00385484 0.00386958 0.00388435 0.00389915 0.00391414 0.0039291 0.00394405 0.00395903 0.00397404
0.00398924 0.00400442 0.00401958 0.00403476 0.00404999 0.0040654 0.00408079 0.00409617 0.00411157 0.00412702
0.00414264 0.00415825 0.00417385 0.00418946 0.00420513 0.00422097 0.0042368 0.00425262 0.00426846 0.00428434
0.0043004 0.00431645 0.00433249 0.00434856 0.00436467 0.00438095 0.00439722 0.00441349 0.00442978 0.00444611
0.00446261 0.00447911 0.00449561 0.00451212 0.00452868 0.00454541 0.00456213 0.00457886 0.0045956 0.00461239
0.00462934 0.0046463 0.00466325 0.00468022 0.00469723 0.00471442 0.0047316 0.00474879 0.00476599 0.00478323
0.00480064 0.00481806 0.00483548 0.00485292 0.00487039 0.00488803 0.00490568 0.00492334 0.00494101 0.00495871
0.00497659 0.00499447 0.00501236 0.00503027 0.00504821 0.00506631 0.00508443 0.00510256 0.00512071 0.00513888
0.00515722 0.00517557 0.00519394 0.00521232 0.00523073 0.00524931 0.0052679 0.0052865 0.00530513 0.00532377
0.00534259 0.00536142 0.00538026 0.00539913 0.00541801 0.00543706 0.00545613 0.00547522 0.00549432 0.00551345
0.00553274 0.00555205 0.00557138 0.00559073 0.00561009 0.00562963 0.00564919 0.00566876 0.00568835 0.00570796
0.00572774 0.00574754 0.00576735 0.00578719 0.00580704 0.00582707 0.00584711 0.00586717 0.00588725 0.00590735
0.00591867 0.00592999 0.00594131 0.00595264 0.00596372 0.00597276 0.00598179 0.00599083 0.00599987 0.00600892
0.00602944 0.00604998 0.00607054 0.00609112 0.00611172 0.00613249 0.00615329 0.0061741 0.00619493 0.00621578
0.00623681 0.00625785 0.00627892 0.00630001 0.00632111 0.00634239 0.0063637 0.00638502 0.00640636 0.00642773
0.00644926 0.00647083 0.00649241 0.00651401 0.00653563 0.00655743 0.00657925 0.00660109 0.00662295 0.00664483
0.00666689 0.00668897 0.00671108 0.0067332 0.00675534 0.00677766 0.00680001 0.00682238 0.00684477 0.00686717
0.00688976 0.00691237 0.00693501 0.00695766 0.00698033 0.00700319 0.00702607 0.00704897 0.0070719 0.00709484
0.00711796 0.00714111 0.00716429 0.00718749 0.0072107 0.0072341 0.00725752 0.00728098 0.00730445 0.00732793
0.00735161 0.00737531 0.00739904 0.00742279 0.00744655 0.00747051 0.00749449 0.0075185 0.00754253 0.00756657
0.00759081 0.00761508 0.00763937 0.00766368 0.00768801 0.00771254 0.00773709 0.00776167 0.00778627 0.00781089
0.0078357 0.00786055 0.00788542 0.00791031 0.00793522 0.00796033 0.00798547 0.00801064 0.00803582 0.00806102
0.00808644 0.00811188 0.00813734 0.00816283 0.00818833 0.00821405 0.00823979 0.00826556 0.00829135 0.00831716
0.00834318 0.00836924 0.00839531 0.00842141 0.00844753 0.00847387 0.00850023 0.00852662 0.00855303 0.00857947
0.00860432 0.0086292 0.0086541 0.00867902 0.00870246 0.00870457 0.00870668 0.00870879 0.0087109 0.00871302
0.00874 0.00876701 0.00879405 0.00882111 0.00884819 0.00887551 0.00890285 0.00893022 0.00895762 0.00898504
0.00901269 0.00904038 0.00906809 0.00909583 0.0091236 0.00915159 0.00917962 0.00920768 0.00923577 0.00926389
0.00929224 0.00932062 0.00934904 0.00937748 0.00940595 0.00943466 0.0094634 0.00949218 0.009521 0.00954983
0.0095789 0.00960801 0.00963716 0.00966635 0.00969555 0.009725 0.00975448 0.00978402 0.00981358 0.00984316
0.00987299 0.00990286 0.00993278 0.00996273 0.0099927 0.0100229 0.0100532 0.0100835 0.0101138 0.0101442
0.0101748 0.0102055 0.0102362 0.010267 0.0102977 0.0103288 0.0103599 0.010391 0.0104222 0.0104533
0.0104848 0.0105163 0.0105479 0.0105794 0.0106111 0.010643 0.0106749 0.0107069 0.0107389 0.0107709
0.0107842 0.0107975 0.0108107 0.010824 0.0108369 0.0108561 0.0108753 0.0108946 0.0109138 0.0109331
0.0109659 0.0109988 0.0110317 0.0110646 0.0110976 0.0111309 0.0111642 0.0111976 0.011231 0.0112644
0.0112982 0.011332 0.0113659 0.0113998 0.0114338 0.0114681 0.0115024 0.0115368 0.0115712 0.0116057
0.0116405 0.0116754 0.0117103 0.0117452 0.0117803 0.0118156 0.011851 0.0118864 0.011922 0.0119575
0.0119934 0.0120294 0.0120654 0.0121014 0.0121376 0.012174 0.0122106 0.0122472 0.0122838 0.0123205
0.0123576 0.0123947 0.0124319 0.0124691 0.0125064 0.0125089 0.0125114 0.0125139 0.0125164 0.0125189
0.0125541 0.0125894 0.0126247 0.01266 0.0126954 0.0127337 0.0127721 0.0128105 0.012849 0.0128875
0.0129264 0.0129654 0.0130045 0.0130436 0.0130828 0.0131224 0.0131621 0.0132018 0.0132416 0.0132815
0.0133217 0.0133621 0.0134025 0.013443 0.0134836 0.0135245 0.0135656 0.0136067 0.013648 0.0136893
0.013731 0.0137728 0.0138147 0.0138566 0.0138987 0.0139349 0.0139711 0.0140074 0.0140438 0.0140783
0.014085 0.0140918 0.0140986 0.0141053 0.0141121 0.0141553 0.0141987 0.0142421 0.0142857 0.0143294
0.0143734 0.0144176 0.0144619 0.0145062 0.0145507 0.0145957 0.0146407 0.0146858 0.014731 0.0147764
0.0148222 0.0148681 0.0149141 0.0149602 0.0150065 0.0150532 0.0151 0.0151469 0.015194 0.0152411
0.0152888 0.0153366 0.0153845 0.0154325 0.0154807 0.0155015 0.0155223 0.0155432 0.0155641 0.0155845
0.0156126 0.0156407 0.0156689 0.0156971 0.0157253 0.015775 0.0158248 0.0158747 0.0159248 0.015975
0.0160257 0.0160766 0.0161276 0.0161787 0.01623 0.0162818 0.0163338 0.0163859 0.0164381 0.0164906
0.0165435 0.0165967 0.0166499 0.0167034 0.016757 0.0168112 0.0168655 0.01692 0.0169746 0.0170295
0.0170398 0.0170501 0.0170604 0.0170707 0.0170809 0.0171262 0.0171716 0.0172171 0.0172627 0.0173085
0.0173652 0.0174221 0.0174792 0.0175364 0.0175939 0.0176519 0.0177102 0.0177686 0.0178272 0.0178861
0.0179455 0.0180052 0.0180651 0.0181251 0.0181854 0.0182464 0.0183075 0.0183689 0.0184305 0.0184923
0.0185134 0.0185345 0.0185557 0.0185768 0.0185976 0.0186394 0.0186812 0.0187231 0.0187652 0.0188073
0.0188714 0.0189357 0.0190003 0.0190651 0.0191301 0.0191959 0.0192619 0.0193281 0.0193946 0.0194614
0.0195289 0.0195967 0.0196647 0.019733 0.0198016 0.019871 0.0199406 0.0200105 0.0200807 0.0201512
0.0201526 0.020154 0.0201555 0.0201569 0.0201584 0.0202282 0.0202984 0.0203688 0.0204395 0.0205105
0.0205838 0.0206574 0.0207312 0.0208054 0.0208799 0.0209553 0.021031 0.021107 0.0211833 0.02126
0.0213376 0.0214155 0.0214937 0.0215723 0.0216513 0.0216778 0.0217043 0.0217309 0.0217575 0.0217838
0.0218376 0.0218917 0.0219458 0.0220002 0.0220547 0.022137 0.0222197 0.0223027 0.0223861 0.0224699
0.0225547 0.0226399 0.0227255 0.0228115 0.0228979 0.0229853 0.0230732 0.0231615 0.0232502 0.0233393
0.0233702 0.023401 0.0234319 0.0234629 0.0234935 0.0235535 0.0236137 0.0236741 0.0237346 0.0237954
0.0238886 0.0239822 0.0240762 0.0241707 0.0242657 0.0243618 0.0244584 0.0245555 0.0246531 0.0247513
0.0248506 0.0249504 0.0250508 0.0251516 0.0252531 0.025264 0.0252749 0.0252858 0.0252968 0.0253077
0.0253997 0.0254922 0.025585 0.0256783 0.025772 0.0258781 0.0259848 0.026092 0.0261998 0.0263082
0.0264179 0.0265282 0.0266391 0.0267506 0.0268627 0.0269397 0.0270169 0.0270944 0.0271722 0.0272486
0.0272862 0.0273239 0.0273616 0.0273994 0.0274372 0.0275547 0.0276728 0.0277915 0.0279109 0.0280309
0.0281525 0.0282747 0.0283975 0.028521 0.0286452 0.028771 0.0288975 0.0290247 0.0291525 0.0292811
0.029293 0.0293049 0.0293168 0.0293287 0.0293406 0.0294593 0.0295785 0.0296982 0.0298186 0.0299395
0.0300742 0.0302096 0.0303458 0.0304827 0.0306203 0.0307596 0.0308996 0.0310405 0.031182 0.0313243
0.0313814 0.0314387 0.0314961 0.0315536 0.031611 0.0316988 0.031787 0.0318755 0.0319642 0.0320532
0.0322021 0.0323519 0.0325024 0.0326538 0.0328059 0.0329598 0.0331146 0.0332702 0.0334266 0.0335837
0.0336615 0.0337396 0.0338178 0.0338962 0.0339747 0.034057 0.0341394 0.034222 0.0343048 0.0343878
0.034552 0.0347169 0.0348827 0.0350492 0.0352164 0.0353856 0.0355556 0.0357265 0.0358981 0.0360704
0.0361581 0.036246 0.0363341 0.0364224 0.0365114 0.0365989 0.0366865 0.0367743 0.0368622 0.0369504
0.0371296 0.0373097 0.0374906 0.0376721 0.0378542 0.0380383 0.0382232 0.0384089 0.0385953 0.0387821
0.0388779 0.0389738 0.0390699 0.0391662 0.0392641 0.0393578 0.0394516 0.0395456 0.0396398 0.039734
0.0399275 0.0401216 0.0403164 0.0405118 0.0407074 0.0409051 0.0411035 0.0413025 0.041502 0.0417017
0.0418176 0.0419338 0.0420502 0.0421667 0.0422864 0.0423722 0.042458 0.0425439 0.0426299 0.0427159
0.0429214 0.0431273 0.0433338 0.0435406 0.0437474 0.0439562 0.0441654 0.044375 0.044585 0.0447948
0.0449634 0.0451323 0.0453014 0.0454705 0.0456486 0.0456902 0.0457317 0.0457733 0.0458149 0.0458565
0.0460709 0.0462855 0.0465004 0.0467153 0.04693 0.0471466 0.0473633 0.0475801 0.0477971 0.0480136
0.0482319 0.0484503 0.0486687 0.0488871 0.049105 0.0491745 0.049244 0.0493135 0.0493829 0.0494544
0.0496041 0.0497538 0.0499034 0.0500529 0.0502023 0.0504229 0.0506434 0.0508638 0.051084 0.0513035
0.0515246 0.0517456 0.0519664 0.0521869 0.0524067 0.052628 0.0528491 0.0530699 0.0532903 0.05351
0.0535921 0.0536742 0.0537563 0.0538383 0.053925 0.0540626 0.0542 0.0543372 0.0544742 0.054611
0.0548315 0.0550517 0.0552713 0.0554905 0.0557087 0.0559281 0.056147 0.0563654 0.0565832 0.0568
0.0570181 0.0572357 0.0574528 0.0576691 0.0578838 0.0580908 0.0582974 0.0585031 0.058708 0.0589117
0.0589194 0.0589271 0.0589348 0.0589426 0.0589503 0.0591533 0.0593552 0.0595562 0.0597561 0.0599548
0.0601681 0.0603803 0.0605913 0.0608012 0.0610095 0.0612248 0.0614388 0.0616515 0.0618628 0.0620726
0.0621823 0.0622917 0.0624006 0.0625092 0.0626287 0.0627314 0.0628337 0.0629357 0.0630373 0.0631386
0.0633558 0.0635714 0.0637853 0.0639977 0.0642084 0.0644256 0.0646411 0.0648549 0.065067 0.0652774
0.0654941 0.065709 0.0659222 0.0661336 0.0663431 0.0664774 0.066611 0.0667439 0.066876 0.0670271
0.0671024 0.0671775 0.0672524 0.0673271 0.0674015 0.0676161 0.0678287 0.0680394 0.0682482 0.0684551
0.0686681 0.0688792 0.0690882 0.0692953 0.0695005 0.0697117 0.0699208 0.0701279 0.0703331 0.0705363
0.0707454 0.0709525 0.0711575 0.0713605 0.0715616 0.071752 0.0719407 0.0721276 0.0723128 0.0725454
0.0725514 0.0725573 0.0725633 0.0725693 0.0725753 0.0727798 0.0729822 0.0731825 0.0733809 0.0735773
0.0737794 0.0739793 0.0741772 0.0743731 0.0745671 0.0747666 0.074964 0.0751594 0.0753527 0.0755442
0.0757412 0.075936 0.0761288 0.0763196 0.0765086 0.0767029 0.076895 0.0770851 0.0772732 0.0774596
0.0776512 0.0778408 0.0780284 0.0782139 0.0783976 0.0785864 0.078773 0.0789577 0.0791405 0.0793215
0.0795076 0.0796918 0.0798738 0.0800537 0.0802316 0.080287 0.0803421 0.0803971 0.0804519 0.0805135
0.0806375 0.0807606 0.0808829 0.0810043 0.0811249 0.0813056 0.0814841 0.0816602 0.0818339 0.0820053
0.0821802 0.0823516 0.082521 0.0826885 0.0828545 -9.99997e-06 -7.99997e-06 -5.99998e-06 -3.99998e-06 -1.99999e-06
0 2.96566e-05 5.93127e-05 8.89677e-05 0.000118621 0.000148273 0.000178656 0.000209037 0.000239415 0.000269789
0.000300159 0.00032931 0.000358456 0.000387597 0.000416733 0.000445864 0.000473826 0.000501783 0.000529736 0.000557683
0.000585626 0.000612448 0.000639265 0.000666079 0.000692888 0.000719693 0.000745422 0.000771148 0.00079687 0.000822588
0.000848302 0.000872985 0.000897664 0.000922339 0.000947011 0.00097168 0.000995359 0.00101904 0.00104271 0.00106638
0.00109004 0.00111276 0.00113548 0.00115819 0.0011809 0.00120361 0.0012254 0.0012472 0.00126899 0.00129078
0.00131256 0.00133348 0.00135439 0.0013753 0.0013962 0.00141711 0.00143717 0.00145724 0.0014773 0.00149736
0.00151742 0.00153668 0.00155593 0.00157518 0.00159443 0.00161368 0.00163215 0.00165063 0.0016691 0.00168757
0.00170604 0.00172377 0.0017415 0.00175923 0.00177695 0.00179468 0.00181169 0.0018287 0.00184572 0.00186273
0.00187973 0.00189606 0.00191239 0.00192871 0.00194503 0.00196135 0.00197702 0.00199269 0.00200835 0.00202402
0.00203968 0.00205014 0.0020606 0.00207105 0.00208151 0.00209196 0.00210249 0.00211303 0.00212356 0.0021341
0.00214463 0.00215524 0.00216585 0.00217647 0.00218708 0.00219769 0.00220838 0.00221908 0.00222977 0.00224046
0.00225115 0.00226193 0.0022727 0.00228347 0.00229425 0.00230502 0.00231587 0.00232673 0.00233758 0.00234844
0.00235929 0.00237023 0.00238116 0.0023921 0.00240303 0.00241397 0.00242499 0.00243601 0.00244703 0.00245805
0.00246906 0.00248017 0.00249127 0.00250237 0.00251348 0.00252458 0.00253577 0.00254695 0.00255814 0.00256933
0.00258051 0.00259179 0.00260306 0.00261433 0.00262561 0.00263688 0.00264824 0.0026596 0.00267095 0.00268231
0.00269367 0.00270512 0.00271656 0.00272801 0.00273945 0.0027509 0.00276243 0.00277397 0.0027855 0.00279703
0.00280857 0.00282019 0.00283181 0.00284343 0.00285506 0.00286668 0.00287839 0.0028901 0.00290181 0.00291352
0.00292523 0.00293703 0.00294884 0.00296064 0.00297244 0.00298424 0.00299613 0.00300802 0.00301992 0.00303181
0.0030437 0.00305568 0.00306767 0.00307965 0.00309163 0.00310362 0.00311569 0.00312777 0.00313985 0.00315192
0.003164 0.00317617 0.00318833 0.0032005 0.00321267 0.00322484 0.0032371 0.00324936 0.00326163 0.00327389
0.00328615 0.00329851 0.00331087 0.00332322 0.00333558 0.00334794 0.00336039 0.00337284 0.00338529 0.00339774
0.00341019 0.00342274 0.00343529 0.00344784 0.00346039 0.00347293 0.00348558 0.00349822 0.00351087 0.00352351
0.00353615 0.0035489 0.00356164 0.00357438 0.00358712 0.00359986 0.0036127 0.00362554 0.00363838 0.00365122
0.00366406 0.003677 0.00368994 0.00370288 0.00371581 0.00372875 0.00373583 0.0037429 0.00374997 0.00375704
0.0037641 0.00377007 0.00377603 0.003782 0.00378797 0.00379394 0.00380708 0.00382022 0.00383336 0.00384649
0.00385963 0.00387287 0.00388611 0.00389935 0.00391259 0.00392583 0.00393917 0.00395251 0.00396585 0.00397919
0.00399253 0.00400598 0.00401942 0.00403286 0.00404631 0.00405975 0.0040733 0.00408684 0.00410039 0.00411394
0.00412748 0.00414113 0.00415479 0.00416844 0.00418209 0.00419574 0.00420949 0.00422325 0.00423701 0.00425076
0.00426452 0.00427838 0.00429224 0.0043061 0.00431996 0.00433382 0.00434779 0.00436176 0.00437573 0.0043897
0.00440367 0.00441774 0.00443182 0.00444589 0.00445997 0.00447404 0.00448823 0.00450242 0.0045166 0.00453078
0.00454497 0.00455926 0.00457356 0.00458785 0.00460214 0.00461643 0.00463084 0.00464524 0.00465965 0.00467405
0.00468845 0.00470297 0.00471749 0.004732 0.00474651 0.00476103 0.00477566 0.00479029 0.00480491 0.00481954
0.00483416 0.00484891 0.00486365 0.00487839 0.00489313 0.00490787 0.00492272 0.00493758 0.00495243 0.00496729
0.00498214 0.00499711 0.00501208 0.00502705 0.00504202 0.00505699 0.00507208 0.00508717 0.00510225 0.00511734
0.00513242 0.00514763 0.00516283 0.00517804 0.00519324 0.00520844 0.00522377 0.00523909 0.00525441 0.00526974
0.00528506 0.0053005 0.00531595 0.00533139 0.00534683 0.00536227 0.00537784 0.0053934 0.00540897 0.00542453
0.0054401 0.00545579 0.00547147 0.00548716 0.00550284 0.00551853 0.00553434 0.00555015 0.00556596 0.00558178
0.00559759 0.00561352 0.00562946 0.0056454 0.00566133 0.00567727 0.00569333 0.0057094 0.00572546 0.00574152
0.00575759 0.00577378 0.00578997 0.00580617 0.00582236 0.00583855 0.0058489 0.00585925 0.0058696 0.00587995
0.00589016 0.00589616 0.00590216 0.00590816 0.00591416 0.00592017 0.00593662 0.00595307 0.00596953 0.00598598
0.00600244 0.00601903 0.00603562 0.00605221 0.0060688 0.00608539 0.00610212 0.00611884 0.00613556 0.00615229
0.00616902 0.00618589 0.00620275 0.00621961 0.00623647 0.00625334 0.00627035 0.00628735 0.00630435 0.00632136
0.00633836 0.00635553 0.00637267 0.00638981 0.00640696 0.00642411 0.00644142 0.00645871 0.006476 0.00649329
0.00651059 0.00652805 0.0065455 0.00656293 0.00658036 0.00659782 0.00661543 0.00663303 0.00665061 0.00666819
0.0066858 0.00670358 0.00672133 0.00673906 0.0067568 0.00677456 0.0067925 0.00681041 0.0068283 0.0068462
0.00686412 0.00688222 0.00690029 0.00691835 0.0069364 0.00695449 0.00697276 0.006991 0.00700921 0.00702744
0.00704569 0.00706412 0.00708253 0.00710092 0.00711931 0.00713773 0.00715634 0.00717492 0.00719348 0.00721205
0.00723065 0.00724943 0.00726818 0.00728693 0.00730568 0.00732446 0.00734341 0.00736235 0.00738128 0.00740022
0.00741917 0.00743831 0.00745742 0.00747654 0.00749567 0.00751481 0.00753413 0.00755344 0.00757275 0.00759208
0.00761141 0.00763092 0.00765043 0.00766994 0.00768946 0.00770899 0.0077287 0.0077484 0.00776811 0.00778784
0.00780757 0.0078095 0.00781142 0.00781335 0.00781527 0.00781719 0.00783517 0.00785316 0.00787115 0.00788916
0.00790718 0.0079273 0.00794742 0.00796755 0.00798769 0.00800784 0.00802819 0.00804852 0.00806887 0.00808923
0.0081096 0.00813017 0.00815073 0.00817129 0.00819187 0.00821247 0.00823328 0.00825406 0.00827485 0.00829566
0.00831649 0.00833754 0.00835857 0.00837958 0.00840061 0.00842169 0.00844298 0.00846426 0.00848551 0.00850677
0.00852809 0.00854964 0.00857116 0.00859266 0.00861417 0.00863575 0.00865754 0.00867932 0.00870107 0.00872285
0.00874468 0.00876673 0.00878877 0.00881078 0.00883282 0.00885491 0.00887723 0.00889953 0.00892182 0.00894414
0.0089665 0.00898908 0.00901166 0.00903423 0.00905683 0.00907946 0.00910233 0.00912517 0.00914804 0.00917093
0.00919385 0.00921699 0.00924013 0.00926329 0.00928648 0.0093097 0.00932878 0.00934788 0.00936699 0.00938611
0.00940453 0.00940903 0.00941354 0.00941804 0.00942255 0.00942706 0.00945078 0.00947453 0.00949831 0.00952211
0.00954594 0.00956999 0.00959406 0.00961815 0.00964227 0.00966642 0.0096908 0.00971519 0.0097396 0.00976405
0.00978853 0.00981325 0.00983797 0.00986272 0.0098875 0.00991232 0.00993738 0.00996246 0.00998754 0.0100127
0.0100378 0.0100632 0.0100887 0.0101141 0.0101396 0.0101651 0.0101909 0.0102167 0.0102425 0.0102683