/*--------------------------------*- C++ -*----------------------------------*\
  =========                 |
  \\      /  F ield         | OpenFOAM: The Open Source CFD Toolbox
   \\    /   O peration     | Website:  https://openfoam.org
    \\  /    A nd           | Version:  11
     \\/     M anipulation  |
\*---------------------------------------------------------------------------*/
FoamFile
{
    format      ascii;
    class       volScalarField;
    location    "200";
    object      epsilon;
}
// * * * * * * * * * * * * * * * * * * * * * * * * * * * * * * * * * * * * * //

dimensions      [0 2 -3 0 0 0 0];

internalField   nonuniform List<scalar> 
12225
(
285.522
270.706
257.916
243.811
232.462
223.086
216.81
212.699
212.742
213.959
217.241
220.911
228.129
232.77
241.372
246.583
256.282
260.085
52.4924
91.883
106.974
114.749
124.844
136.783
152.694
169.902
191.124
210.932
235.256
255.49
281.109
299.361
324.823
339.562
363.706
379.431
20.5285
34.8724
44.6758
50.4686
55.3968
59.6064
64.6666
69.6405
76.323
83.1818
91.4475
99.3194
108.193
116.947
125.579
135.333
142.576
154.093
16.0023
19.4862
24.0819
27.5632
30.4974
32.8687
35.1565
37.2924
39.5045
41.9171
44.3395
47.2033
49.6857
53.0451
55.4188
59.261
61.3994
65.7144
15.0385
15.7123
17.3993
19.0782
20.6397
22.0256
23.2466
24.4307
25.4447
26.5946
27.5242
28.7587
29.6335
30.9876
31.8147
33.2768
34.052
35.6748
14.7897
14.8256
15.2495
15.8675
16.5678
17.2869
17.9239
18.5841
19.1193
19.7341
20.1936
20.7993
21.2089
21.8236
22.1986
22.831
23.1639
23.8719
14.7658
14.6146
14.6409
14.7257
14.9352
15.2199
15.4916
15.8089
16.071
16.3827
16.6182
16.9204
17.1311
17.4275
17.616
17.915
18.0723
18.4133
14.7687
14.5866
14.466
14.3801
14.3677
14.3896
14.4394
14.5334
14.6185
14.7367
14.8309
14.9566
15.0478
15.1765
15.2609
15.3936
15.4631
15.6242
14.768
14.591
14.4349
14.2963
14.185
14.1044
14.0399
14.0066
13.9814
13.9785
13.9809
13.9917
14.0037
14.03
14.0463
14.0813
14.097
14.1518
14.7666
14.594
14.432
14.282
14.143
14.0219
13.9115
13.8193
13.737
13.6698
13.6102
13.5633
13.5181
13.4872
13.4516
13.4344
13.4019
13.4012
14.7659
14.5945
14.4322
14.2803
14.1361
14.0032
13.8782
13.7644
13.6582
13.5629
13.4735
13.3952
13.3198
13.2561
13.1915
13.1408
13.0838
13.0452
14.7657
14.5943
14.4321
14.2798
14.1353
13.9998
13.8715
13.7518
13.6385
13.5336
13.4341
13.343
13.2557
13.1771
13.1002
13.0328
12.9647
12.9074
14.7657
14.5941
14.432
14.2794
14.1349
13.9989
13.8699
13.7485
13.6331
13.5249
13.4219
13.3257
13.2338
13.1483
13.0663
12.9906
12.9172
12.8502
14.7657
14.5939
14.4318
14.279
14.1346
13.9983
13.8691
13.7472
13.6315
13.5223
13.4184
13.3203
13.227
13.1389
13.055
12.9759
12.9002
12.8291
14.7657
14.5938
14.4317
14.2787
14.1342
13.9977
13.8686
13.7464
13.6307
13.5211
13.4171
13.3185
13.2248
13.136
13.0516
12.9715
12.8952
12.8228
14.7657
14.5937
14.4316
14.2785
14.1339
13.9973
13.8681
13.7458
13.63
13.5202
13.4161
13.3174
13.2236
13.1346
13.05
12.9697
12.8932
12.8205
14.7657
14.5937
14.4315
14.2783
14.1337
13.997
13.8677
13.7453
13.6294
13.5195
13.4154
13.3165
13.2227
13.1336
13.0489
12.9684
12.8919
12.819
14.7657
14.5937
14.4314
14.2782
14.1335
13.9968
13.8674
13.745
13.629
13.5191
13.4148
13.3159
13.222
13.1329
13.0481
12.9676
12.8909
12.818
14.7657
14.5937
14.4314
14.2782
14.1335
13.9967
13.8673
13.7448
13.6288
13.5189
13.4146
13.3157
13.2217
13.1325
13.0477
12.9671
12.8904
12.8175
14.7657
14.5937
14.4314
14.2782
14.1336
13.9968
13.8674
13.745
13.629
13.5191
13.4148
13.3159
13.222
13.1327
13.048
12.9674
12.8907
12.8177
14.7657
14.5937
14.4315
14.2784
14.1338
13.997
13.8677
13.7453
13.6294
13.5196
13.4155
13.3166
13.2229
13.1339
13.0494
12.969
12.8927
12.82
14.7657
14.5937
14.4316
14.2785
14.1341
13.9974
13.8685
13.7464
13.6312
13.522
13.419
13.3214
13.2293
13.1418
13.0595
12.981
12.9074
12.8369
14.7659
14.5937
14.4318
14.2788
14.1353
14.0002
13.8742
13.756
13.6463
13.5435
13.4485
13.3592
13.277
13.1992
13.1282
13.0601
12.9988
12.9387
14.7661
14.5928
14.4329
14.2844
14.1515
14.0321
13.9289
13.8375
13.7593
13.6894
13.6307
13.5769
13.5328
13.4905
13.4574
13.423
13.3989
13.3693
14.7641
14.5936
14.461
14.3603
14.3029
14.2767
14.2796
14.294
14.3202
14.3529
14.3959
14.4345
14.4824
14.5217
14.572
14.6089
14.6616
14.6938
14.757
14.6921
14.7579
14.9172
15.1828
15.4611
15.7475
16.012
16.2723
16.5038
16.736
16.9386
17.1507
17.3309
17.5309
17.6936
17.8887
18.0359
14.9575
15.4344
16.5693
17.6884
18.7053
19.5677
20.3372
20.9968
21.6194
22.166
22.7188
23.2107
23.7398
24.2042
24.7326
25.1825
25.7248
26.1658
16.2579
20.9389
25.015
27.7587
29.7844
31.3585
32.7766
34.0583
35.3592
36.6161
37.9752
39.2969
40.7613
42.1454
43.7174
45.1733
46.8832
48.3579
29.9428
47.225
54.8704
58.6734
61.6137
64.4319
67.5793
70.9787
74.7376
78.7135
82.9847
87.3436
91.9043
96.4492
101.099
105.621
110.174
114.575
165.79
160.073
154.899
149.564
144.479
139.678
135.613
132.11
129.27
126.973
125.319
124.044
123.339
122.829
122.825
122.982
123.268
123.826
0.463157
0.490657
0.871981
1.23437
1.61909
2.02848
2.46607
2.9288
3.40987
3.89955
4.38952
4.87179
5.34101
5.79187
6.22068
6.62272
6.99374
7.3278
7.6188
7.85901
8.041
8.15745
8.19795
8.16871
8.04538
7.89884
7.77828
8.02644
8.33499
8.59218
8.86785
9.0203
8.79108
9.19482
39.6502
39.8749
40.3817
44.7313
47.2846
50.9726
54.3948
58.1962
62.073
66.1633
70.4059
74.8344
79.4348
84.2229
89.1922
94.3567
99.7098
105.266
111.019
116.982
123.149
129.534
136.127
142.945
149.977
157.238
164.715
172.425
180.353
188.516
196.896
205.509
214.337
223.395
232.662
242.154
251.847
261.756
271.856
282.161
292.643
303.315
314.146
325.149
336.292
347.586
358.997
370.531
382.153
393.867
405.635
417.453
429.283
441.112
452.902
464.632
476.264
487.771
499.141
510.4
521.645
532.696
543.604
554.325
564.849
575.149
585.203
594.989
604.483
613.662
622.505
630.987
639.089
646.786
654.06
660.886
667.252
673.131
678.515
683.38
687.722
691.52
694.779
697.483
699.645
701.27
702.312
702.453
702.305
701.38
700.082
698.353
695.964
693.032
689.593
685.644
681.227
676.346
671.044
665.331
659.25
652.819
646.064
639.023
631.743
624.276
616.669
608.967
601.203
593.413
585.625
577.878
570.2
562.629
555.185
547.904
540.806
533.927
527.281
520.905
514.803
509.007
503.513
498.348
493.508
489.006
484.833
481.004
477.491
474.285
471.404
469.325
470.408
471.983
473.852
476.042
478.505
481.194
484.043
486.953
489.682
492.087
494.175
495.238
493.897
471.154
1.97056
1.16962
1.16922
1.32231
1.5546
1.84358
2.17942
2.5526
2.95316
3.37156
3.79986
4.23196
4.66367
5.09216
5.51553
5.93232
6.34116
6.74048
7.12821
7.50169
7.85752
8.20029
8.55932
8.95713
9.42134
9.99656
10.6858
11.4755
12.3547
13.4112
14.7948
16.6634
18.4055
21.589
24.6551
25.5939
27.1043
28.8642
30.5046
32.2959
34.112
36.0135
37.9711
40.0003
42.0963
44.2639
46.5029
48.8162
51.2041
53.669
56.2112
58.8327
61.5337
64.3161
67.1797
70.1263
73.1553
76.2682
79.4642
82.7447
86.1081
89.5558
93.0859
96.6993
100.394
104.17
108.024
111.958
115.967
120.052
124.208
128.435
132.729
137.089
141.509
145.987
150.519
155.102
159.73
164.4
169.105
173.84
178.599
183.375
188.16
192.948
197.728
202.494
207.235
211.947
216.621
221.26
225.874
230.491
235.17
239.809
244.386
248.892
253.322
257.665
261.913
266.058
270.09
274.002
277.783
281.426
284.922
288.261
291.437
294.44
297.263
299.898
302.339
304.579
306.613
308.434
310.04
311.426
312.589
313.521
314.209
314.633
314.843
314.802
314.579
314.153
313.475
312.564
311.437
310.099
308.561
306.829
304.915
302.826
300.576
298.174
295.633
292.968
290.196
287.336
284.405
281.42
278.397
275.347
272.287
269.23
266.191
263.182
260.217
257.307
254.467
251.707
249.039
246.474
244.021
241.69
239.485
237.416
235.486
233.7
232.06
230.571
229.232
228.045
227.03
226.324
226.373
226.604
226.98
227.504
228.122
228.839
229.628
230.433
231.17
231.826
232.38
233.029
233.26
232.47
3.90323
1.97023
1.74653
1.79697
1.95931
2.19539
2.48823
2.82636
3.19956
3.59859
4.01579
4.44548
4.88406
5.32973
5.78211
6.24187
6.71046
7.19012
7.68395
8.19671
8.7363
9.31048
9.91719
10.5666
11.2738
12.0466
12.8835
13.7861
14.7666
15.8556
17.0778
18.4074
19.8076
21.3409
22.7376
23.9736
25.3103
26.7067
28.1325
29.6182
31.1547
32.747
34.3928
36.0942
37.8514
39.6656
41.5376
43.4682
45.4582
47.5085
49.6195
51.7922
54.0269
56.3243
58.6848
61.1087
63.5963
66.1479
68.7634
71.4429
74.1861
76.993
79.8631
82.7958
85.7905
88.8465
91.9627
95.1382
98.3716
101.662
105.006
108.404
111.853
115.352
118.896
122.485
126.115
129.784
133.487
137.223
140.986
144.773
148.58
152.403
156.236
160.076
163.917
167.756
171.588
175.411
179.223
183.026
186.821
190.614
194.4
198.149
201.853
205.504
209.096
212.622
216.075
219.449
222.735
225.927
229.019
232.002
234.87
237.616
240.232
242.713
245.052
247.242
249.278
251.154
252.865
254.407
255.775
256.965
257.974
258.797
259.43
259.871
260.101
260.159
260.063
259.781
259.309
258.654
257.825
256.826
255.665
254.347
252.881
251.273
249.533
247.671
245.696
243.619
241.455
239.215
236.914
234.563
232.175
229.763
227.335
224.906
222.485
220.084
217.712
215.38
213.098
210.875
208.719
206.641
204.645
202.741
200.933
199.227
197.627
196.138
194.761
193.5
192.356
191.331
190.433
189.715
189.304
189.039
188.901
188.849
188.823
188.871
188.975
189.063
189.067
189.043
189.011
189.182
189.448
190.267
5.92437
2.82414
2.37756
2.34439
2.46326
2.66996
2.93985
3.25967
3.61969
4.01174
4.42911
4.86672
5.3213
5.79129
6.27667
6.77858
7.29913
7.84107
8.40759
9.00208
9.62779
10.2871
10.981
11.7121
12.4831
13.2951
14.1493
15.0489
16.001
17.0145
18.0921
19.2282
20.4324
21.6526
22.8743
24.11
25.4049
26.7482
28.1306
29.5576
31.0327
32.5578
34.1337
35.7614
37.4417
39.1754
40.9634
42.8065
44.7054
46.6609
48.6737
50.7442
52.873
55.0607
57.3077
59.6146
61.9815
64.4088
66.8967
69.4453
72.0546
74.7245
77.4548
80.2452
83.0951
86.0041
88.9714
91.9962
95.0774
98.2139
101.404
104.647
107.941
111.283
114.672
118.106
121.582
125.097
128.649
132.235
135.851
139.494
143.161
146.847
150.55
154.265
157.989
161.717
165.448
169.178
172.904
176.626
180.34
184.043
187.725
191.373
194.979
198.537
202.039
205.48
208.852
212.149
215.364
218.49
221.519
224.445
227.261
229.96
232.535
234.979
237.287
239.452
241.468
243.329
245.031
246.569
247.938
249.134
250.153
250.993
251.65
252.125
252.395
252.489
252.432
252.188
251.766
251.167
250.398
249.465
248.373
247.127
245.736
244.206
242.546
240.765
238.873
236.88
234.799
232.641
230.418
228.142
225.825
223.478
221.112
218.738
216.366
214.008
211.671
209.367
207.104
204.89
202.734
200.644
198.626
196.687
194.833
193.068
191.396
189.821
188.345
186.969
185.693
184.518
183.446
182.502
181.727
181.069
180.51
180.009
179.552
179.12
178.713
178.285
177.825
177.356
176.909
176.655
176.663
177.31
7.87344
3.67151
3.00516
2.89441
2.97191
3.15329
3.40508
3.71105
4.06097
4.44715
4.86345
5.30519
5.76914
6.25351
6.75784
7.28275
7.82969
8.40064
8.99779
9.62324
10.2786
10.965
11.683
12.4329
13.2156
14.033
14.8871
15.7806
16.7168
17.6985
18.7262
19.7969
20.9205
22.0873
23.2909
24.5359
25.823
27.1533
28.5293
29.9535
31.4262
32.9487
34.522
36.147
37.8248
39.5564
41.3427
43.1847
45.0835
47.0401
49.0554
51.1296
53.2636
55.458
57.7135
60.0308
62.4105
64.853
67.3587
69.9282
72.5615
75.2588
78.0202
80.8456
83.7348
86.6875
89.7031
92.781
95.9205
99.1206
102.38
105.698
109.072
112.501
115.982
119.515
123.096
126.723
130.393
134.103
137.85
141.631
145.442
149.28
153.141
157.021
160.916
164.822
168.736
172.654
176.571
180.483
184.383
188.266
192.123
195.945
199.726
203.459
207.137
210.751
214.297
217.765
221.149
224.441
227.634
230.721
233.694
236.546
239.27
241.858
244.304
246.602
248.744
250.726
252.541
254.184
255.651
256.938
258.039
258.954
259.678
260.212
260.538
260.666
260.634
260.408
259.994
259.396
258.621
257.671
256.554
255.275
253.84
252.258
250.538
248.688
246.718
244.64
242.465
240.204
237.87
235.474
233.029
230.545
228.035
225.509
222.979
220.453
217.944
215.459
213.009
210.601
208.244
205.945
203.711
201.548
199.462
197.458
195.538
193.706
191.963
190.311
188.749
187.275
185.893
184.609
183.439
182.365
181.369
180.43
179.537
178.667
177.813
176.955
176.087
175.23
174.423
173.802
173.435
173.634
9.69206
4.47832
3.60167
3.41631
3.45365
3.61056
3.84482
4.13686
4.4754
4.85269
5.26291
5.70159
6.16553
6.65267
7.16209
7.69378
8.24848
8.82744
9.43218
10.0642
10.7249
11.4154
12.1365
12.8892
13.6745
14.4944
15.351
16.2465
17.1834
18.1635
19.1878
20.2568
21.3719
22.5319
23.736
24.9852
26.2802
27.6221
29.0119
30.4511
31.9406
33.4819
35.076
36.7241
38.4275
40.1873
42.0046
43.8807
45.8166
47.8131
49.8715
51.9932
54.1792
56.4306
58.7485
61.1338
63.5874
66.1103
68.703
71.3664
74.101
76.9072
79.7855
82.7359
85.7586
88.8535
92.0203
95.2586
98.5678
101.947
105.395
108.911
112.493
116.14
119.849
123.618
127.446
131.328
135.263
139.247
143.276
147.348
151.458
155.602
159.777
163.977
168.198
172.435
176.684
180.939
185.194
189.444
193.68
197.896
202.084
206.237
210.346
214.404
218.404
222.338
226.197
229.974
233.661
237.25
240.732
244.1
247.345
250.46
253.436
256.267
258.944
261.46
263.809
265.984
267.979
269.788
271.406
272.829
274.051
275.07
275.885
276.493
276.88
277.045
277.032
276.809
276.383
275.757
274.937
273.928
272.734
271.363
269.822
268.118
266.26
264.258
262.123
259.866
257.499
255.033
252.481
249.856
247.17
244.435
241.663
238.866
236.056
233.243
230.437
227.649
224.888
222.163
219.482
216.852
214.281
211.774
209.337
206.975
204.691
202.488
200.369
198.333
196.38
194.511
192.724
191.021
189.409
187.879
186.42
185.017
183.658
182.33
181.025
179.731
178.45
177.202
176.027
175.036
174.274
173.928
11.3353
5.21998
4.14676
3.88936
3.88748
4.01933
4.23516
4.51183
4.83669
5.20167
5.60105
6.03055
6.48707
6.9685
7.47367
8.00225
8.55456
9.13146
9.73414
10.364
11.0223
11.7106
12.4301
13.1822
13.9683
14.7904
15.6502
16.5497
17.4907
18.4749
19.5032
20.5765
21.6956
22.8611
24.0734
25.3335
26.6424
28.0012
29.411
30.8731
32.3888
33.9594
35.5865
37.2714
39.0155
40.8204
42.6876
44.6184
46.6144
48.677
50.8077
53.0082
55.2799
57.6243
60.0428
62.5367
65.1075
67.7563
70.4843
73.2926
76.182
79.1534
82.2074
85.3447
88.5654
91.8699
95.258
98.7295
102.284
105.92
109.638
113.436
117.312
121.265
125.292
129.392
133.561
137.796
142.094
146.453
150.867
155.332
159.845
164.4
168.993
173.619
178.271
182.944
187.632
192.329
197.027
201.719
206.397
211.053
215.679
220.266
224.806
229.291
233.712
238.06
242.326
246.502
250.578
254.547
258.397
262.122
265.711
269.157
272.45
275.582
278.546
281.332
283.934
286.345
288.557
290.564
292.361
293.942
295.304
296.442
297.354
298.038
298.485
298.684
298.679
298.445
297.986
297.308
296.414
295.311
294.003
292.497
290.802
288.924
286.875
284.663
282.3
279.798
277.169
274.426
271.582
268.65
265.644
262.576
259.459
256.306
253.129
249.94
246.75
243.568
240.405
237.271
234.173
231.119
228.117
225.173
222.293
219.481
216.742
214.078
211.493
208.987
206.561
204.214
201.946
199.758
197.65
195.619
193.658
191.758
189.91
188.105
186.336
184.598
182.896
181.251
179.698
178.33
177.162
176.276
12.7715
5.87877
4.6265
4.2971
4.25914
4.36565
4.56206
4.82191
5.13115
5.48128
5.86655
6.28288
6.72732
7.19788
7.69339
8.21342
8.75813
9.32822
9.92473
10.5489
11.2023
11.8862
12.6021
13.3518
14.1368
14.959
15.8199
16.7214
17.6651
18.6524
19.6846
20.7627
21.888
23.0613
24.2838
25.5567
26.8815
28.2596
29.6923
31.1811
32.7278
34.3338
36.001
37.731
39.5257
41.3869
43.3164
45.3163
47.3882
49.5343
51.7566
54.0568
56.4372
58.8995
61.4456
64.0775
66.7969
69.6055
72.5049
75.4966
78.582
81.7622
85.0383
88.4111
91.8814
95.4494
99.1155
102.879
106.741
110.699
114.753
118.902
123.144
127.477
131.898
136.405
140.995
145.665
150.41
155.227
160.11
165.056
170.058
175.111
180.21
185.348
190.518
195.713
200.927
206.151
211.376
216.595
221.798
226.977
232.121
237.222
242.27
247.255
252.168
257
261.739
266.376
270.902
275.306
279.578
283.708
287.688
291.506
295.154
298.623
301.904
304.988
307.866
310.532
312.978
315.196
317.181
318.927
320.43
321.685
322.69
323.442
323.934
324.155
324.141
323.876
323.361
322.602
321.604
320.373
318.914
317.235
315.344
313.249
310.96
308.489
305.846
303.045
300.099
297.021
293.824
290.524
287.133
283.667
280.139
276.561
272.948
269.312
265.664
262.015
258.376
254.756
251.165
247.61
244.101
240.642
237.241
233.903
230.632
227.432
224.307
221.258
218.288
215.395
212.582
209.847
207.193
204.616
202.115
199.685
197.319
195.013
192.761
190.565
188.43
186.376
184.435
182.681
181.104
179.728
13.9811
6.44268
5.03176
4.63504
4.56213
4.64333
4.81967
5.06175
5.35422
5.68806
6.05748
6.45852
6.88843
7.34542
7.82838
8.3369
8.87113
9.43175
10.0198
10.6365
11.2832
11.961
12.6715
13.4166
14.1981
15.0176
15.8769
16.7777
17.7217
18.7103
19.7451
20.8275
21.9588
23.1404
24.3737
25.6599
27.0015
28.4004
29.8581
31.3768
32.9582
34.6046
36.3179
38.1003
39.954
41.8814
43.8847
45.9663
48.1288
50.3745
52.7059
55.1256
57.6361
60.2398
62.9392
65.7368
68.6347
71.6353
74.7406
77.9526
81.2732
84.7039
88.2462
91.9013
95.67
99.5532
103.551
107.664
111.891
116.232
120.685
125.25
129.924
134.706
139.592
144.579
149.663
154.841
160.108
165.46
170.889
176.392
181.961
187.59
193.271
198.998
204.761
210.553
216.366
222.189
228.013
233.828
239.624
245.391
251.117
256.792
262.406
267.947
273.405
278.768
284.026
289.167
294.18
299.054
303.779
308.343
312.736
316.947
320.967
324.786
328.394
331.781
334.94
337.861
340.537
342.96
345.124
347.024
348.653
350.008
351.087
351.885
352.397
352.617
352.567
352.24
351.637
350.764
349.627
348.231
346.583
344.69
342.562
340.206
337.634
334.857
331.888
328.74
325.427
321.962
318.362
314.64
310.811
306.891
302.894
298.834
294.726
290.582
286.415
282.237
278.059
273.891
269.743
265.623
261.541
257.503
253.516
249.587
245.72
241.921
238.193
234.54
230.965
227.469
224.055
220.723
217.475
214.313
211.236
208.243
205.332
202.501
199.749
197.079
194.497
192.023
189.683
187.535
185.552
183.725
14.9558
6.90623
5.35979
4.90215
4.79594
4.85235
5.0085
5.23247
5.50773
5.82479
6.17775
6.56274
6.9772
7.41952
7.8888
8.38409
8.90591
9.45508
10.0327
10.6402
11.2793
11.9503
12.6548
13.3946
14.1713
14.9869
15.843
16.7415
17.6841
18.6727
19.7088
20.7943
21.9309
23.1204
24.3646
25.6655
27.0267
28.449
29.9349
31.4874
33.1089
34.8019
36.569
38.4128
40.336
42.3414
44.432
46.6107
48.8805
51.2445
53.7059
56.2677
58.9331
61.7052
64.587
67.5816
70.6918
73.9204
77.2702
80.7435
84.3427
88.0698
91.9265
95.9145
100.035
104.288
108.676
113.197
117.851
122.638
127.557
132.605
137.78
143.08
148.501
154.04
159.692
165.452
171.314
177.273
183.323
189.455
195.663
201.938
208.272
214.655
221.079
227.533
234.008
240.491
246.973
253.441
259.883
266.289
272.644
278.939
285.159
291.293
297.328
303.253
309.054
314.72
320.238
325.596
330.783
335.786
340.594
345.197
349.583
353.742
357.664
361.34
364.76
367.915
370.797
373.4
375.715
377.737
379.461
380.883
381.999
382.807
383.301
383.481
383.358
382.928
382.195
381.166
379.847
378.244
376.363
374.213
371.804
369.143
366.244
363.117
359.776
356.235
352.509
348.612
344.56
340.369
336.055
331.632
327.118
322.526
317.872
313.17
308.433
303.674
298.904
294.135
289.377
284.639
279.93
275.259
270.633
266.06
261.544
257.093
252.712
248.404
244.175
240.029
235.968
231.996
228.117
224.334
220.649
217.066
213.586
210.209
206.939
203.78
200.739
197.834
195.086
192.542
190.156
187.911
15.697
7.26914
5.61209
5.10128
4.9642
4.99698
5.13339
5.33946
5.59769
5.89815
6.23483
6.60385
7.00264
7.43011
7.88613
8.36985
8.88114
9.42046
9.98866
10.5868
11.216
11.8771
12.5724
13.3039
14.0733
14.8827
15.734
16.6291
17.5701
18.5591
19.5981
20.6892
21.8347
23.0368
24.2976
25.6188
27.0027
28.4524
29.9724
31.5661
33.2365
34.9866
36.8195
38.7385
40.7468
42.8478
45.0451
47.3423
49.7431
52.2513
54.8707
57.6051
60.4584
63.4342
66.5364
69.7685
73.1341
76.6366
80.2791
84.0647
87.996
92.0754
96.305
100.687
105.221
109.91
114.754
119.752
124.904
130.21
135.666
141.271
147.022
152.916
158.948
165.114
171.408
177.824
184.355
190.995
197.735
204.566
211.48
218.467
225.517
232.618
239.76
246.931
254.118
261.31
268.494
275.655
282.782
289.859
296.873
303.81
310.657
317.4
324.024
330.517
336.864
343.052
349.068
354.899
360.532
365.955
371.155
376.122
380.843
385.309
389.508
393.432
397.07
400.415
403.457
406.189
408.605
410.699
412.466
413.901
415.002
415.765
416.189
416.275
416.026
415.439
414.524
413.288
411.736
409.875
407.712
405.257
402.518
399.506
396.232
392.71
388.953
384.975
380.792
376.42
371.874
367.171
362.328
357.361
352.286
347.12
341.879
336.576
331.227
325.844
320.441
315.028
309.617
304.218
298.841
293.495
288.188
282.929
277.723
272.58
267.504
262.503
257.583
252.749
248.006
243.362
238.82
234.388
230.071
225.875
221.805
217.867
214.064
210.404
206.894
203.55
200.389
197.447
194.668
192.032
16.2168
7.53568
5.79346
5.2381
5.07332
5.08428
5.20193
5.39083
5.6327
5.91714
6.23861
6.59426
6.9804
7.39534
7.83785
8.30693
8.80386
9.32949
9.88476
10.4708
11.0889
11.7409
12.4285
13.1533
13.9175
14.723
15.572
16.4668
17.4098
18.4033
19.45
20.5522
21.7126
22.9341
24.2199
25.572
26.9926
28.4841
30.0516
31.7008
33.4355
35.2605
37.1798
39.1969
41.3155
43.5399
45.8743
48.3231
50.8908
53.5819
56.401
59.3527
62.4414
65.6716
69.0478
72.5742
76.255
80.0939
84.0947
88.2608
92.595
97.1
101.778
106.631
111.66
116.865
122.248
127.806
133.541
139.448
145.527
151.774
158.185
164.755
171.48
178.353
185.368
192.516
199.79
207.181
214.679
222.274
229.955
237.71
245.528
253.395
261.299
269.225
277.161
285.091
293
300.875
308.698
316.456
324.132
331.711
339.178
346.517
353.713
360.752
367.617
374.296
380.773
387.036
393.069
398.862
404.4
409.673
414.669
419.378
423.788
427.891
431.678
435.139
438.268
441.057
443.499
445.59
447.324
448.699
449.711
450.359
450.642
450.564
450.12
449.308
448.148
446.642
444.797
442.62
440.119
437.304
434.185
430.771
427.075
423.111
418.892
414.434
409.752
404.864
399.785
394.532
389.123
383.575
377.905
372.13
366.266
360.329
354.334
348.295
342.225
336.137
330.042
323.951
317.874
311.822
305.803
299.828
293.903
288.038
282.24
276.518
270.879
265.332
259.884
254.543
249.317
244.217
239.25
234.426
229.754
225.242
220.897
216.728
212.744
208.958
205.381
202.045
198.885
195.886
16.5371
7.71625
5.91171
5.32055
5.13138
5.12344
5.2234
5.39647
5.62472
5.89644
6.20485
6.54512
6.91537
7.31475
7.74279
8.19976
8.68573
9.20133
9.74751
10.3255
10.9368
11.5831
12.2663
12.9886
13.7521
14.5591
15.4121
16.3137
17.2667
18.2743
19.3399
20.4656
21.6542
22.9092
24.233
25.6271
27.0979
28.6514
30.2926
32.0263
33.8574
35.7908
37.8323
39.9863
42.2575
44.6508
47.1715
49.8249
52.6163
55.551
58.6343
61.8716
65.268
68.8287
72.5586
76.4625
80.545
84.8102
89.262
93.9039
98.7389
103.769
108.997
114.424
120.051
125.877
131.903
138.126
144.545
151.157
157.958
164.943
172.109
179.448
186.953
194.617
202.431
210.386
218.472
226.678
234.992
243.403
251.897
260.46
269.079
277.739
286.425
295.12
303.81
312.478
321.108
329.682
338.183
346.596
354.902
363.084
371.126
379.011
386.723
394.246
401.565
408.663
415.526
422.139
428.49
434.564
440.35
445.836
451.011
455.864
460.385
464.566
468.398
471.874
474.987
477.729
480.097
482.084
483.688
484.906
485.735
486.176
486.229
485.905
485.172
484.062
482.58
480.733
478.526
475.967
473.066
469.831
466.274
462.406
458.238
453.784
449.059
444.079
438.859
433.417
427.77
421.934
415.928
409.769
403.476
397.065
390.553
383.957
377.293
370.574
363.816
357.03
350.229
343.426
336.63
329.852
323.103
316.393
309.731
303.128
296.591
290.132
283.76
277.485
271.317
265.268
259.347
253.568
247.943
242.484
237.203
232.113
227.223
222.545
218.086
213.86
209.873
206.152
202.625
199.291
16.6508
7.81055
5.97148
5.35532
5.14596
5.12288
5.20991
5.37032
5.58388
5.8403
6.13401
6.46165
6.82091
7.21041
7.62962
8.07858
8.55773
9.06786
9.61004
10.1856
10.7963
11.4441
12.1311
12.8601
13.634
14.4549
15.3253
16.2486
17.2279
18.2662
19.3654
20.5289
21.7623
23.0705
24.4585
25.9313
27.4942
29.1531
30.9135
32.7812
34.7622
36.8628
39.089
41.4465
43.9414
46.58
49.3686
52.3135
55.421
58.6971
62.1477
65.7787
69.5956
73.6042
77.8094
82.2164
86.8295
91.6529
96.6901
101.944
107.417
113.112
119.028
125.166
131.527
138.108
144.908
151.924
159.152
166.587
174.224
182.056
190.077
198.278
206.651
215.185
223.869
232.693
241.644
250.709
259.875
269.127
278.45
287.829
297.247
306.688
316.136
325.571
334.978
344.338
353.633
362.844
371.954
380.944
389.795
398.49
407.01
415.339
423.459
431.353
439.006
446.402
453.525
460.361
466.897
473.12
479.017
484.578
489.793
494.651
499.144
503.264
507.005
510.359
513.321
515.885
518.048
519.806
521.156
522.097
522.627
522.75
522.478
521.78
520.672
519.171
517.283
515.012
512.367
509.354
505.984
502.267
498.214
493.836
489.146
484.157
478.883
473.342
467.549
461.522
455.277
448.832
442.205
435.413
428.476
421.411
414.235
406.965
399.617
392.206
384.748
377.254
369.739
362.214
354.69
347.18
339.694
332.243
324.839
317.491
310.212
303.012
295.903
288.898
282.009
275.249
268.634
262.177
255.895
249.803
243.917
238.253
232.824
227.643
222.719
218.062
213.677
209.586
205.713
202.078
16.6218
7.82762
5.97981
5.35135
5.13003
5.09519
5.1678
5.31443
5.51664
5.76382
6.0497
6.37062
6.7244
7.10989
7.52672
7.97512
8.45586
8.97036
9.51959
10.1049
10.7285
11.3926
12.0997
12.8523
13.6523
14.5022
15.407
16.3711
17.3988
18.4946
19.6639
20.9111
22.2416
23.6611
25.1758
26.7923
28.5168
30.3563
32.3174
34.4072
36.6328
39.0016
41.5206
44.197
47.0385
50.0529
53.2481
56.6315
60.2099
63.9892
67.9756
72.1748
76.5923
81.2333
86.1025
91.204
96.5415
102.118
107.935
113.995
120.299
126.846
133.635
140.665
147.933
155.435
163.167
171.124
179.299
187.685
196.275
205.059
214.028
223.171
232.477
241.933
251.527
261.246
271.074
280.997
290.999
301.064
311.175
321.316
331.468
341.613
351.734
361.81
371.824
381.757
391.589
401.301
410.874
420.289
429.528
438.571
447.4
455.998
464.347
472.431
480.234
487.741
494.935
501.804
508.335
514.515
520.335
525.782
530.849
535.528
539.81
543.69
547.163
550.223
552.866
555.089
556.889
558.264
559.215
559.736
559.83
559.523
558.77
557.593
556.006
554.015
551.625
548.843
545.678
542.137
538.229
533.967
529.361
524.422
519.162
513.596
507.737
501.603
495.208
488.571
481.707
474.635
467.372
459.936
452.346
444.619
436.773
428.825
420.791
412.688
404.53
396.33
388.102
379.859
371.612
363.373
355.155
346.97
338.829
330.745
322.73
314.798
306.961
299.235
291.635
284.176
276.877
269.755
262.829
256.118
249.641
243.418
237.466
231.8
226.429
221.361
216.599
212.163
207.969
204.067
16.4938
7.80337
5.95843
5.32064
5.08648
5.04106
5.10656
5.24785
5.44617
5.69129
5.97752
6.30135
6.66048
7.05405
7.48197
7.94467
8.44291
8.97739
9.54843
10.1596
10.8141
11.5151
12.2661
13.0712
13.9351
14.8618
15.8562
16.9237
18.0701
19.3016
20.625
22.0468
23.574
25.2141
26.9749
28.8646
30.8915
33.0641
35.3906
37.8796
40.5391
43.3766
46.3999
49.6187
53.0421
56.6797
60.542
64.6385
68.9733
73.5506
78.375
83.4506
88.781
94.3692
100.218
106.328
112.701
119.337
126.234
133.391
140.805
148.473
156.39
164.55
172.948
181.577
190.428
199.492
208.762
218.225
227.873
237.691
247.67
257.794
268.052
278.428
288.908
299.476
310.117
320.814
331.551
342.31
353.073
363.823
374.541
385.209
395.808
406.318
416.721
426.998
437.13
447.097
456.88
466.462
475.822
484.944
493.809
502.4
510.701
518.696
526.37
533.709
540.698
547.325
553.578
559.447
564.923
569.996
574.66
578.908
582.735
586.136
589.108
591.649
593.757
595.428
596.667
597.462
597.833
597.756
597.268
596.318
594.953
593.168
590.97
588.366
585.363
581.966
578.185
574.028
569.502
564.622
559.397
553.837
547.954
541.763
535.277
528.512
521.484
514.21
506.704
498.986
491.071
482.978
474.724
466.327
457.806
449.177
440.457
431.661
422.804
413.901
404.965
396.008
387.044
378.084
369.141
360.23
351.362
342.552
333.814
325.161
316.611
308.178
299.882
291.741
283.776
276.009
268.461
261.153
254.109
247.353
240.897
234.759
228.954
223.493
218.376
213.622
209.146
205.04
16.2493
7.73888
5.90459
5.26551
5.03217
4.98931
5.05972
5.20861
5.41711
5.67523
5.97713
6.31731
6.69597
7.11333
7.57017
8.06782
8.60827
9.19434
9.82903
10.5156
11.2583
12.0618
12.9315
13.8734
14.894
15.9999
17.1982
18.4967
19.9037
21.428
23.0787
24.8656
26.7983
28.8872
31.1426
33.575
36.1948
39.0124
42.0377
45.2803
48.7492
52.453
56.4
60.5989
65.0579
69.7849
74.7871
80.0759
85.6499
91.508
97.6497
104.074
110.779
117.762
125.021
132.551
140.347
148.404
156.714
165.272
174.069
183.096
192.345
201.806
211.468
221.321
231.354
241.554
251.911
262.41
273.04
283.788
294.638
305.579
316.594
327.67
338.791
349.942
361.107
372.271
383.416
394.526
405.585
416.575
427.478
438.278
448.957
459.496
469.878
480.086
490.1
499.904
509.48
518.811
527.879
536.668
545.161
553.344
561.2
568.718
575.882
582.681
589.102
595.134
600.766
605.99
610.801
615.191
619.153
622.683
625.781
628.443
630.665
632.452
633.803
634.709
635.196
635.214
634.848
633.998
632.734
631.051
628.954
626.448
623.539
620.233
616.539
612.461
608.007
603.185
598.003
592.473
586.604
580.407
573.892
567.072
559.962
552.574
544.926
537.03
528.904
520.563
512.024
503.303
494.418
485.386
476.226
466.953
457.583
448.134
438.619
429.053
419.449
409.821
400.18
390.539
380.913
371.317
361.763
352.268
342.846
333.515
324.293
315.196
306.246
297.466
288.878
280.495
272.35
264.472
256.887
249.627
242.73
236.204
230.048
224.275
218.879
213.88
209.184
204.921
15.9424
7.62315
5.82981
5.21246
4.9972
4.97272
5.06269
5.23063
5.46167
5.74742
6.08346
6.46821
6.90114
7.38333
7.91698
8.50522
9.1521
9.86253
10.6421
11.4967
12.4334
13.46
14.5855
15.8193
17.1717
18.6534
20.2759
22.0515
23.9929
26.1129
28.4249
30.942
33.6774
36.6445
39.8556
43.3225
47.0563
51.0674
55.365
59.9566
64.8479
70.0442
75.5504
81.3694
87.5029
93.9534
100.722
107.808
115.198
122.881
130.847
139.085
147.586
156.338
165.329
174.55
183.987
193.629
203.465
213.482
223.669
234.012
244.501
255.124
265.868
276.721
287.671
298.707
309.817
320.988
332.208
343.466
354.749
366.045
377.34
388.622
399.879
411.097
422.262
433.362
444.381
455.306
466.123
476.816
487.371
497.773
508.005
518.055
527.905
537.539
546.942
556.098
564.993
573.611
581.936
589.955
597.653
605.017
612.033
618.691
624.979
630.888
636.404
641.52
646.227
650.52
654.395
657.845
660.865
663.452
665.613
667.343
668.633
669.504
669.954
669.946