/*--------------------------------*- C++ -*----------------------------------*\
  =========                 |
  \\      /  F ield         | OpenFOAM: The Open Source CFD Toolbox
   \\    /   O peration     | Website:  https://openfoam.org
    \\  /    A nd           | Version:  11
     \\/     M anipulation  |
\*---------------------------------------------------------------------------*/
FoamFile
{
    format      ascii;
    class       volScalarField;
    location    "200";
    object      k;
}
// * * * * * * * * * * * * * * * * * * * * * * * * * * * * * * * * * * * * * //

dimensions      [0 2 -2 0 0 0 0];

internalField   nonuniform List<scalar> 
12225
(
0.362813
0.343993
0.327744
0.30982
0.295399
0.283484
0.27551
0.270285
0.270341
0.271881
0.276062
0.280697
0.289889
0.295776
0.306695
0.313256
0.324076
0.3341
0.440186
0.468698
0.461605
0.44837
0.450349
0.458314
0.47454
0.498558
0.524397
0.552146
0.580764
0.606213
0.633885
0.65397
0.679865
0.693345
0.717752
0.728815
0.390541
0.417873
0.420231
0.416826
0.411628
0.407804
0.408018
0.410037
0.414558
0.421402
0.430738
0.439722
0.451206
0.461181
0.4729
0.483629
0.493622
0.506313
0.377546
0.386982
0.391406
0.391341
0.390222
0.387896
0.385662
0.384081
0.382883
0.382896
0.383388
0.384326
0.386307
0.388476
0.390928
0.394279
0.396557
0.401081
0.374561
0.37609
0.378411
0.378665
0.378263
0.377205
0.375488
0.373738
0.37201
0.370455
0.369259
0.368106
0.367383
0.366808
0.366447
0.366348
0.366364
0.366731
0.373814
0.37271
0.372645
0.372383
0.37176
0.370817
0.369553
0.368083
0.366571
0.364976
0.363528
0.362063
0.360755
0.35953
0.358397
0.35743
0.356444
0.355792
0.373782
0.371742
0.370386
0.369287
0.368233
0.367114
0.365915
0.364587
0.363238
0.361808
0.360422
0.359023
0.357677
0.356382
0.35512
0.353966
0.352794
0.351805
0.37382
0.37156
0.369634
0.367977
0.3665
0.365107
0.363775
0.362429
0.361107
0.359766
0.35845
0.357143
0.355863
0.354622
0.3534
0.352249
0.351098
0.350052
0.373832
0.371553
0.369449
0.367525
0.365776
0.364153
0.362645
0.361199
0.359817
0.358473
0.357169
0.355902
0.354667
0.353474
0.352307
0.351195
0.350096
0.349072
0.373831
0.37156
0.369418
0.367405
0.365529
0.363772
0.362133
0.360585
0.359122
0.357728
0.356394
0.355117
0.353888
0.35271
0.351569
0.350481
0.349419
0.34842
0.373829
0.37156
0.369413
0.367378
0.365458
0.363645
0.361937
0.360324
0.358798
0.357353
0.355979
0.354672
0.353424
0.352235
0.351094
0.350008
0.348958
0.347968
0.373828
0.371558
0.369409
0.36737
0.365439
0.363609
0.361875
0.360233
0.358677
0.357201
0.3558
0.354468
0.3532
0.351994
0.350842
0.349747
0.348695
0.3477
0.373827
0.371556
0.369405
0.367365
0.36543
0.363593
0.361851
0.360197
0.358626
0.357134
0.355715
0.354367
0.353084
0.351864
0.3507
0.349594
0.348535
0.347531
0.373827
0.371555
0.369401
0.367359
0.365422
0.363583
0.361837
0.360178
0.3586
0.357101
0.355674
0.354317
0.353024
0.351794
0.350622
0.349506
0.34844
0.347427
0.373826
0.371553
0.369398
0.367355
0.365416
0.363575
0.361826
0.360164
0.358584
0.357081
0.355651
0.354289
0.352993
0.351758
0.35058
0.349459
0.348388
0.347369
0.373826
0.371552
0.369396
0.367351
0.36541
0.363567
0.361817
0.360153
0.358572
0.357067
0.355634
0.354271
0.352972
0.351734
0.350554
0.34943
0.348357
0.347334
0.373825
0.371551
0.369394
0.367348
0.365406
0.363562
0.36181
0.360145
0.358562
0.357055
0.355621
0.354256
0.352955
0.351716
0.350535
0.349408
0.348334
0.347309
0.373825
0.371551
0.369393
0.367346
0.365403
0.363558
0.361805
0.360139
0.358555
0.357047
0.355612
0.354246
0.352944
0.351703
0.350521
0.349393
0.348317
0.347291
0.373825
0.37155
0.369393
0.367346
0.365402
0.363557
0.361804
0.360137
0.358552
0.357044
0.355608
0.354241
0.352938
0.351697
0.350514
0.349385
0.348308
0.347281
0.373825
0.371551
0.369393
0.367347
0.365404
0.363559
0.361806
0.36014
0.358555
0.357047
0.355611
0.354244
0.352942
0.351701
0.350517
0.349389
0.348313
0.347285
0.373825
0.371551
0.369395
0.367349
0.365407
0.363563
0.361811
0.360146
0.358562
0.357055
0.355621
0.354256
0.352955
0.351716
0.350534
0.349408
0.348334
0.347308
0.373826
0.371552
0.369397
0.367352
0.365412
0.363571
0.361822
0.360161
0.358583
0.357083
0.355657
0.354299
0.353007
0.351775
0.350603
0.349484
0.348418
0.347399
0.373826
0.371554
0.369399
0.367359
0.365429
0.363603
0.361875
0.36024
0.358691
0.35722
0.355823
0.354494
0.353227
0.352019
0.350866
0.349763
0.348711
0.347701
0.373828
0.371551
0.369412
0.367417
0.365556
0.363819
0.362189
0.360651
0.359189
0.357794
0.356456
0.355172
0.353936
0.352746
0.351601
0.350496
0.349437
0.348411
0.373823
0.371554
0.369604
0.367893
0.366339
0.364892
0.363495
0.362122
0.360761
0.359414
0.358081
0.35677
0.355489
0.354238
0.353029
0.351856
0.350735
0.349646
0.373788
0.371991
0.371113
0.370266
0.36936
0.368311
0.367048
0.36563
0.364121
0.362575
0.36103
0.359522
0.358073
0.356682
0.355382
0.354142
0.35301
0.351924
0.374355
0.375572
0.377775
0.377858
0.377288
0.375886
0.373835
0.371641
0.369505
0.367482
0.365664
0.364084
0.36271
0.361535
0.36061
0.359818
0.359289
0.3588
0.379125
0.394296
0.398249
0.396573
0.392538
0.387603
0.383646
0.380448
0.378268
0.376852
0.376496
0.37674
0.377414
0.378689
0.38044
0.38242
0.384824
0.387135
0.408394
0.42754
0.422416
0.411055
0.402226
0.397923
0.398625
0.400962
0.406068
0.413052
0.420996
0.429824
0.438831
0.448185
0.457301
0.466544
0.475314
0.484172
0.36605
0.353416
0.341988
0.33021
0.318982
0.308381
0.299411
0.291671
0.285404
0.280333
0.276682
0.273866
0.272311
0.271173
0.27121
0.271471
0.272188
0.273388
0.00158368
0.00767378
0.0136497
0.0193137
0.0253194
0.0317155
0.0385565
0.0458046
0.0533451
0.0610301
0.0687141
0.0762714
0.0835984
0.0906097
0.0972309
0.103396
0.109044
0.114128
0.118618
0.122517
0.125875
0.128463
0.130535
0.133473
0.136003
0.138713
0.141213
0.145771
0.147883
0.148464
0.147083
0.145066
0.140475
0.136503
0.129869
0.141916
0.146241
0.15515
0.161378
0.169507
0.177006
0.185098
0.19317
0.201504
0.209961
0.218604
0.227399
0.236366
0.245491
0.254786
0.264241
0.273867
0.283651
0.293608
0.303723
0.314008
0.324449
0.335058
0.345819
0.356745
0.367815
0.379044
0.390411
0.401928
0.413573
0.425359
0.437261
0.44929
0.461423
0.473669
0.486002
0.498433
0.510933
0.523513
0.536142
0.54883
0.561546
0.574297
0.587055
0.599824
0.612573
0.625306
0.637991
0.650628
0.663183
0.675652
0.688001
0.70022
0.712272
0.72414
0.735792
0.747204
0.758367
0.769306
0.780111
0.790663
0.800974
0.811018
0.820791
0.830272
0.839447
0.848299
0.856812
0.864972
0.872761
0.880166
0.887172
0.893763
0.899926
0.905646
0.910914
0.915713
0.920037
0.923871
0.927212
0.930048
0.93238
0.934202
0.935524
0.936361
0.936621
0.936163
0.935378
0.93388
0.932014
0.929795
0.927011
0.923676
0.919881
0.91561
0.910896
0.905743
0.900181
0.894223
0.887896
0.881217
0.874202
0.866898
0.85934
0.851567
0.84362
0.835532
0.82734
0.819072
0.810761
0.802437
0.794133
0.785876
0.777699
0.769628
0.761695
0.753925
0.746346
0.73898
0.731855
0.724986
0.718396
0.712099
0.706111
0.700435
0.695088
0.690075
0.685391
0.681051
0.677302
0.676269
0.676425
0.67652
0.677024
0.677877
0.679077
0.680503
0.682125
0.683885
0.685679
0.687324
0.688428
0.688682
0.686881
0.665959
0.00677497
0.0225145
0.0326649
0.0405297
0.0476921
0.0548577
0.062289
0.0700386
0.0780442
0.0861945
0.0943697
0.102463
0.110389
0.118076
0.125468
0.132518
0.139185
0.145442
0.151279
0.156721
0.161838
0.166758
0.171736
0.177116
0.183141
0.190051
0.197494
0.20425
0.210046
0.215503
0.221087
0.228342
0.238676
0.247307
0.25816
0.272695
0.286438
0.298899
0.311111
0.324117
0.33744
0.351124
0.365116
0.379431
0.394055
0.408993
0.42424
0.439802
0.455677
0.471871
0.488383
0.505217
0.522375
0.53986
0.557672
0.575814
0.594285
0.613087
0.632218
0.651679
0.671465
0.691577
0.712009
0.73276
0.753821
0.775191
0.79686
0.818823
0.841069
0.863592
0.886378
0.909421
0.932704
0.956219
0.979947
1.00388
1.02799
1.05227
1.07671
1.10127
1.12595
1.15072
1.17556
1.20045
1.22535
1.25025
1.27511
1.2999
1.32458
1.34912
1.37346
1.39756
1.42134
1.44474
1.46766
1.49024
1.51251
1.53444
1.556
1.57715
1.59787
1.61812
1.63787
1.65708
1.67572
1.69375
1.71115
1.72787
1.74389
1.75916
1.77366
1.78735
1.80021
1.81221
1.82332
1.83351
1.84276
1.85106
1.85838
1.86472
1.87004
1.87436
1.87767
1.87962
1.88057
1.88093
1.8803
1.87848
1.87565
1.87185
1.8671
1.86143
1.85487
1.84746
1.83923
1.83025
1.82055
1.81018
1.79922
1.78773
1.77578
1.76344
1.75078
1.73786
1.72474
1.7115
1.69819
1.68488
1.67164
1.65852
1.6456
1.63292
1.62055
1.60854
1.59695
1.58582
1.5752
1.56514
1.55566
1.5468
1.53859
1.53103
1.52415
1.51794
1.51246
1.50804
1.50432
1.50132
1.49894
1.49709
1.49568
1.49451
1.49347
1.49236
1.491
1.48918
1.48654
1.48312
1.47616
1.45205
0.013447
0.0365517
0.049514
0.0593033
0.0680162
0.0764111
0.0848254
0.0933898
0.102117
0.110958
0.119841
0.128692
0.137453
0.146077
0.154533
0.162799
0.170869
0.178751
0.186478
0.194118
0.201789
0.209669
0.217981
0.226933
0.236638
0.247025
0.25775
0.268547
0.279399
0.290613
0.302654
0.315628
0.329632
0.343977
0.359177
0.37515
0.391282
0.407545
0.424043
0.44096
0.458279
0.475994
0.494095
0.512582
0.531453
0.550707
0.570346
0.590371
0.610783
0.631585
0.652778
0.674364
0.696345
0.718721
0.741494
0.764664
0.78823
0.812191
0.836545
0.861289
0.88642
0.911934
0.937826
0.96409
0.990719
1.0177
1.04504
1.07271
1.10071
1.12902
1.15764
1.18654
1.21572
1.24516
1.27484
1.30473
1.33483
1.36511
1.39556
1.42614
1.45683
1.48761
1.51845
1.54933
1.58022
1.61107
1.64187
1.67258
1.70317
1.73359
1.76381
1.7938
1.82351
1.85292
1.88201
1.91074
1.9391
1.96703
1.99451
2.02149
2.04793
2.07378
2.09901
2.12356
2.14741
2.1705
2.19278
2.21422
2.23478
2.2544
2.27305
2.29069
2.30727
2.32277
2.33714
2.35036
2.36239
2.37321
2.38279
2.39111
2.39816
2.40392
2.40839
2.41146
2.41307
2.41363
2.41306
2.41108
2.40782
2.40332
2.39761
2.39073
2.38272
2.37363
2.3635
2.3524
2.34039
2.32753
2.3139
2.29958
2.28465
2.26921
2.25333
2.23709
2.22058
2.20388
2.18707
2.17023
2.15343
2.13676
2.1203
2.10411
2.08827
2.07285
2.05791
2.04351
2.02971
2.01655
2.0041
1.99237
1.9814
1.97121
1.96182
1.95322
1.94542
1.93847
1.93226
1.92681
1.92196
1.91761
1.91366
1.90991
1.90619
1.90233
1.89818
1.8936
1.8884
1.88278
1.8748
1.8564
0.0204318
0.0493702
0.064954
0.0764392
0.086409
0.095788
0.105001
0.114248
0.123601
0.133066
0.142611
0.152195
0.161779
0.171339
0.180858
0.190337
0.19979
0.209247
0.218761
0.22841
0.238302
0.248571
0.259353
0.270763
0.282849
0.295562
0.308776
0.322384
0.336388
0.350901
0.366061
0.381921
0.39849
0.415653
0.43339
0.451644
0.470303
0.489311
0.508672
0.528435
0.548616
0.569223
0.590258
0.611723
0.633621
0.655952
0.678721
0.701929
0.725578
0.749673
0.774214
0.799204
0.824645
0.850538
0.876885
0.903684
0.930936
0.958639
0.986792
1.01539
1.04443
1.07391
1.10383
1.13416
1.16492
1.19608
1.22765
1.2596
1.29193
1.32462
1.35765
1.39102
1.4247
1.45868
1.49294
1.52745
1.56219
1.59714
1.63228
1.66757
1.703
1.73853
1.77414
1.80979
1.84545
1.88109
1.91668
1.95218
1.98755
2.02276
2.05778
2.09256
2.12707
2.16127
2.19513
2.22859
2.26162
2.29417
2.32619
2.35764
2.38848
2.41864
2.44808
2.47675
2.5046
2.53158
2.55764
2.58273
2.6068
2.6298
2.65168
2.6724
2.6919
2.71015
2.7271
2.74272
2.75697
2.76982
2.78123
2.79119
2.79967
2.80666
2.81216
2.81614
2.81843
2.81929
2.81884
2.81684
2.81335
2.80841
2.80205
2.79433
2.78528
2.77495
2.76341
2.75072
2.73695
2.72217
2.70646
2.68993
2.67266
2.65474
2.63627
2.61735
2.59806
2.57851
2.55877
2.53895
2.51914
2.49942
2.47987
2.46059
2.44165
2.42313
2.40511
2.38765
2.37082
2.35467
2.33925
2.32461
2.31078
2.29777
2.28559
2.27424
2.2637
2.25396
2.24498
2.2367
2.22903
2.22183
2.21498
2.20833
2.2017
2.19495
2.18797
2.18068
2.17306
2.16545
2.15647
2.14116
0.0271699
0.0611052
0.0790935
0.0921698
0.103314
0.113596
0.12353
0.133379
0.143273
0.153266
0.16337
0.173575
0.183866
0.194235
0.204682
0.215219
0.225869
0.23667
0.247676
0.258957
0.270595
0.282682
0.295308
0.308538
0.322401
0.336879
0.351929
0.367508
0.38361
0.400265
0.417521
0.435405
0.453912
0.473004
0.492647
0.512805
0.533435
0.554505
0.576007
0.597954
0.620357
0.643226
0.666565
0.69038
0.714673
0.739451
0.764717
0.790474
0.816727
0.843479
0.870734
0.898496
0.926765
0.955545
0.984837
1.01464
1.04496
1.07579
1.10713
1.13898
1.17134
1.20419
1.23754
1.27137
1.30569
1.34047
1.37571
1.4114
1.44753
1.48407
1.52101
1.55834
1.59604
1.63408
1.67244
1.7111
1.75004
1.78923
1.82863
1.86823
1.90799
1.94788
1.98787
2.02792
2.068
2.10807
2.14809
2.18804
2.22786
2.26752
2.30698
2.3462
2.38512
2.42371
2.46191
2.49969
2.53698
2.57374
2.60992
2.64546
2.68031
2.71442
2.74773
2.78018
2.81172
2.84229
2.87184
2.90031
2.92764
2.95379
2.97869
3.00229
3.02454
3.0454
3.06482
3.08274
3.09914
3.11397
3.1272
3.1388
3.14874
3.15701
3.16361
3.16853
3.17163
3.17295
3.17281
3.17094
3.16739
3.1622
3.15541
3.14706
3.13719
3.12586
3.11314
3.09909
3.08379
3.06732
3.04977
3.03124
3.01183
2.99163
2.97075
2.9493
2.92738
2.90508
2.88252
2.85979
2.83699
2.81422
2.79158
2.76914
2.74702
2.72528
2.70401
2.68328
2.66317
2.64374
2.62504
2.6071
2.58998
2.57369
2.55823
2.5436
2.52979
2.51678
2.5045
2.49292
2.48193
2.47143
2.4613
2.45139
2.44157
2.43171
2.42175
2.4117
2.40163
2.39194
2.3816
2.36722
0.0334587
0.0716211
0.091765
0.106309
0.118552
0.129686
0.140297
0.150701
0.161078
0.171525
0.182091
0.192799
0.203658
0.214678
0.22587
0.237255
0.248862
0.260729
0.272905
0.285445
0.298412
0.31187
0.325877
0.340477
0.355693
0.37153
0.387973
0.405006
0.42262
0.440821
0.459618
0.479018
0.499013
0.519588
0.540723
0.562399
0.584595
0.607295
0.630493
0.65419
0.678394
0.703109
0.728343
0.754101
0.780389
0.807213
0.834579
0.862493
0.890959
0.919984
0.949572
0.979726
1.01045
1.04175
1.07363
1.10609
1.13912
1.17274
1.20694
1.24171
1.27706
1.31299
1.34947
1.38652
1.42411
1.46225
1.50091
1.54009
1.57978
1.61994
1.66058
1.70166
1.74317
1.78509
1.82738
1.87003
1.913
1.95627
1.9998
2.04357
2.08753
2.13166
2.17591
2.22025
2.26464
2.30904
2.3534
2.39769
2.44186
2.48586
2.52965
2.57318
2.61639
2.65924
2.70167
2.74362
2.78505
2.8259
2.86611
2.90562
2.94437
2.98231
3.01937
3.0555
3.09063
3.1247
3.15766
3.18943
3.21997
3.2492
3.27708
3.30354
3.32853
3.35198
3.37386
3.39411
3.41269
3.42954
3.44463
3.45794
3.46942
3.47907
3.48686
3.4928
3.49682
3.49878
3.49906
3.49746
3.494
3.48871
3.48162
3.47277
3.46223
3.45003
3.43626
3.42098
3.40426
3.38621
3.36691
3.34645
3.32496
3.30252
3.27926
3.25529
3.23071
3.20563
3.18018
3.15445
3.12855
3.10258
3.07666
3.05087
3.02532
3.00009
2.97527
2.95095
2.92719
2.90407
2.88164
2.85996
2.83905
2.81896
2.7997
2.78126
2.76363
2.74679
2.73071
2.71532
2.70056
2.68633
2.67253
2.65904
2.64576
2.63261
2.61954
2.60663
2.59402
2.58212
2.57006
2.55535
0.0391426
0.0808176
0.102836
0.118687
0.131927
0.143846
0.155086
0.166006
0.176821
0.187663
0.198616
0.209729
0.221035
0.232561
0.244331
0.256371
0.268715
0.281398
0.294464
0.307956
0.321923
0.33641
0.351458
0.3671
0.383355
0.400234
0.417734
0.435851
0.454579
0.473914
0.493857
0.514405
0.535553
0.557293
0.579616
0.602513
0.625973
0.649991
0.674562
0.699688
0.725373
0.751622
0.778441
0.805839
0.833823
0.862399
0.891576
0.921361
0.951761
0.982783
1.01443
1.04672
1.07964
1.11322
1.14744
1.18231
1.21784
1.25403
1.29088
1.32838
1.36654
1.40535
1.44481
1.48491
1.52563
1.56698
1.60894
1.65149
1.69462
1.73831
1.78255
1.8273
1.87256
1.91828
1.96445
2.01103
2.05799
2.10531
2.15293
2.20084
2.24898
2.29733
2.34583
2.39444
2.44313
2.49184
2.54052
2.58914
2.63763
2.68595
2.73404
2.78185
2.82931
2.87638
2.92299
2.96908
3.0146
3.05948
3.10367
3.1471
3.18971
3.23143
3.2722
3.31196
3.35063
3.38816
3.42448
3.45953
3.49324
3.52554
3.55637
3.58567
3.61339
3.63945
3.6638
3.68639
3.70717
3.72608
3.74309
3.75816
3.77125
3.78234
3.7914
3.79843
3.80341
3.80618
3.80698
3.80576
3.80249
3.7972
3.78992
3.78069
3.76956
3.75659
3.74185
3.72541
3.70735
3.68776
3.66674
3.64439
3.62083
3.59615
3.57048
3.54394
3.51664
3.4887
3.46023
3.43136
3.4022
3.37285
3.34344
3.31405
3.2848
3.25578
3.22708
3.1988
3.17101
3.14378
3.11719
3.09129
3.06614
3.04176
3.01818
2.99542
2.97347
2.95232
2.93195
2.91231
2.89336
2.87503
2.85723
2.83989
2.82293
2.8063
2.79
2.77415
2.75891
2.74467
2.73062
2.71486
0.0441109
0.0886367
0.112232
0.129199
0.143307
0.155926
0.167735
0.179124
0.190335
0.201528
0.212809
0.224253
0.235913
0.247829
0.260038
0.272573
0.285468
0.298759
0.312483
0.326678
0.34138
0.356624
0.372441
0.388855
0.405883
0.423537
0.441821
0.460734
0.480276
0.500444
0.521236
0.542649
0.564681
0.587329
0.61059
0.63446
0.658936
0.684018
0.709706
0.736002
0.762912
0.790442
0.818601
0.847396
0.876838
0.906934
0.937695
0.969131
1.00125
1.03406
1.06757
1.1018
1.13674
1.1724
1.2088
1.24593
1.2838
1.32242
1.36178
1.40189
1.44274
1.48433
1.52666
1.56972
1.6135
1.65799
1.70318
1.74905
1.79558
1.84276
1.89057
1.93897
1.98795
2.03747
2.0875
2.13802
2.18898
2.24034
2.29208
2.34413
2.39647
2.44905
2.50181
2.55471
2.6077
2.66073
2.71374
2.76668
2.81949
2.87212
2.92449
2.97656
3.02825
3.07951
3.13027
3.18046
3.23003
3.27891
3.32703
3.37432
3.42072
3.46616
3.51058
3.5539
3.59605
3.63697
3.67659
3.71484
3.75165
3.78696
3.82069
3.85279
3.88318
3.91181
3.9386
3.96352
3.98648
4.00745
4.02638
4.04322
4.05794
4.0705
4.08087
4.08905
4.09501
4.09866
4.10007
4.09931
4.09631
4.0911
4.0837
4.07415
4.06251
4.04883
4.03318
4.01564
3.99628
3.9752
3.9525
3.92827
3.90264
3.87571
3.84761
3.81845
3.78836
3.75747
3.72589
3.69376
3.66117
3.62827
3.59515
3.56194
3.52873
3.49563
3.46275
3.43018
3.398
3.3663
3.33516
3.30464
3.2748
3.2457
3.21738
3.18985
3.16315
3.13727
3.1122
3.08794
3.06445
3.0417
3.01964
2.99822
2.9774
2.95716
2.93755
2.91868
2.90074
2.88407
2.86789
2.85071
0.0482961
0.0950665
0.119937
0.137823
0.152658
0.165876
0.178181
0.189985
0.201548
0.213047
0.22461
0.236326
0.248266
0.260481
0.273019
0.285916
0.299211
0.312938
0.32713
0.34182
0.35704
0.372816
0.389173
0.406131
0.423706
0.441908
0.460746
0.480223
0.500342
0.521104
0.542508
0.564556
0.587249
0.610586
0.634569
0.6592
0.68448
0.710413
0.737004
0.764258
0.792183
0.820788
0.850082
0.880077
0.910783
0.942213
0.974378
1.00729
1.04096
1.0754
1.11063
1.14664
1.18346
1.22109
1.25954
1.29882
1.33893
1.37988
1.42167
1.46431
1.50778
1.5521
1.59725
1.64323
1.69002
1.73763
1.78602
1.8352
1.88513
1.93579
1.98717
2.03923
2.09195
2.14528
2.1992
2.25367
2.30865
2.36409
2.41995
2.47618
2.53273
2.58955
2.64658
2.70378
2.76108
2.81842
2.87575
2.933
2.9901
3.047
3.10362
3.1599
3.21577
3.27116
3.326
3.38022
3.43376
3.48654
3.53849
3.58954
3.63963
3.68867
3.73661
3.78336
3.82887
3.87305
3.91583
3.95716
3.99694
4.03513
4.07164
4.10641
4.13937
4.17045
4.1996
4.22674
4.25182
4.27478
4.29556
4.31413
4.33044
4.34445
4.35613
4.36545
4.3724
4.37692
4.37902
4.37875
4.37608
4.37099
4.36352
4.35371
4.34162
4.32729
4.31079
4.2922
4.2716
4.24907
4.22472
4.19864
4.17096
4.14179
4.11124
4.07945
4.04654
4.01264
3.97787
3.94237
3.90625
3.86964
3.83267
3.79544
3.75807
3.72068
3.68337
3.64624
3.60939
3.57291
3.5369
3.50143
3.46657
3.4324
3.39897
3.36633
3.33452
3.30356
3.27348
3.24428
3.21598
3.18857
3.16203
3.13636
3.11155
3.08761
3.06461
3.04268
3.02202
3.00289
2.98452
2.96568
0.0516678
0.100139
0.126001
0.14461
0.160029
0.173736
0.186456
0.198612
0.210476
0.222238
0.234037
0.245975
0.258132
0.270571
0.283344
0.296496
0.310064
0.324083
0.338585
0.3536
0.369155
0.385275
0.40198
0.419289
0.437216
0.455774
0.474973
0.49482
0.51532
0.53648
0.558303
0.580793
0.603956
0.627796
0.652318
0.677529
0.703434
0.730041
0.757359
0.785396
0.814165
0.843676
0.873944
0.90498
0.936801
0.96942
1.00285
1.03711
1.07221
1.10817
1.14499
1.1827
1.22131
1.26082
1.30125
1.34261
1.38491
1.42814
1.47232
1.51745
1.56352
1.61054
1.6585
1.7074
1.75721
1.80794
1.85955
1.91205
1.9654
2.01957
2.07455
2.13029
2.18677
2.24394
2.30177
2.36022
2.41923
2.47876
2.53875
2.59916
2.65992
2.72098
2.78227
2.84374
2.90531
2.96693
3.02852
3.09001
3.15134
3.21243
3.27321
3.3336
3.39354
3.45293
3.51172
3.56982
3.62717
3.68369
3.7393
3.79393
3.84751
3.89996
3.95122
4.0012
4.04984
4.09706
4.1428
4.18697
4.22952
4.27036
4.30944
4.34668
4.38201
4.41536
4.44667
4.47587
4.5029
4.52771
4.55023
4.57041
4.58821
4.60358
4.61649
4.62691
4.63482
4.64017
4.64296
4.6432
4.64089
4.63595
4.62844
4.61841
4.60591
4.59098
4.57369
4.55411
4.53232
4.5084
4.48246
4.45458
4.4249
4.39351
4.36055
4.32614
4.29041
4.25348
4.2155
4.17659
4.13688
4.09649
4.05556
4.01421
3.97256
3.93072
3.88881
3.84694
3.80522
3.76375
3.72264
3.68198
3.64186
3.60236
3.56357
3.52555
3.48837
3.45209
3.41675
3.3824
3.34909
3.31684
3.28568
3.25564
3.22674
3.19903
3.17261
3.14761
3.1242
3.10262
3.08209
3.06166
0.0542317
0.103927
0.130519
0.149669
0.165532
0.17962
0.192667
0.205105
0.217214
0.229188
0.241175
0.253283
0.2656
0.278195
0.291124
0.304435
0.318169
0.332361
0.347043
0.362242
0.377984
0.394292
0.411185
0.428682
0.446799
0.465549
0.484945
0.504998
0.525719
0.547115
0.569196
0.59197
0.615448
0.639637
0.664548
0.690192
0.716578
0.743718
0.771625
0.800312
0.829794
0.860088
0.89121
0.923178
0.956008
0.989718
1.02433
1.05985
1.09631
1.13372
1.17209
1.21145
1.2518
1.29317
1.33556
1.37899
1.42346
1.46898
1.51555
1.56319
1.61189
1.66164
1.71244
1.76428
1.81715
1.87104
1.92592
1.98177
2.03857
2.0963
2.1549
2.21436
2.27463
2.33566
2.39742
2.45984
2.52289
2.5865
2.65061
2.71516
2.78009
2.84533
2.91082
2.97648
3.04223
3.10802
3.17375
3.23936
3.30476
3.36988
3.43464
3.49896
3.56275
3.62595
3.68846
3.7502
3.81111
3.8711
3.9301
3.98803
4.04481
4.10037
4.15464
4.20753
4.25899
4.30893
4.35729
4.404
4.44898
4.49217
4.5335
4.5729
4.6103
4.64564
4.67884
4.70984
4.73859
4.76501
4.78905
4.81065
4.82977
4.84637
4.86038
4.8718
4.88057
4.88669
4.89012
4.89085
4.88891
4.88413
4.87659
4.86636
4.85349
4.83802
4.82
4.7995
4.77659
4.75136
4.7239
4.69431
4.66269
4.62917
4.59386
4.55689
4.51839
4.47849
4.43732
4.39502
4.35173
4.30756
4.26266
4.21715
4.17116
4.12481
4.07823
4.03154
3.98485
3.93828
3.89195
3.84596
3.80043
3.75546
3.71115
3.66759
3.62489
3.58312
3.54238
3.50274
3.46428
3.42709
3.39121
3.35672
3.32369
3.2922
3.26234
3.23427
3.20815
3.18416
3.16155
3.13963
0.0560284
0.106543
0.133625
0.15315
0.169326
0.183686
0.196971
0.209617
0.221906
0.234036
0.246157
0.258382
0.270803
0.283492
0.296509
0.309902
0.323713
0.337977
0.352727
0.367991
0.383794
0.400158
0.417106
0.434657
0.452829
0.471638
0.491101
0.511232
0.532044
0.553552
0.575769
0.598708
0.622384
0.64681
0.672001
0.697972
0.724738
0.752315
0.78072
0.809973
0.840092
0.871098
0.903013
0.935857
0.969652
1.00442
1.04018
1.07695
1.11476
1.15362
1.19356
1.23458
1.27672
1.31997
1.36437
1.40991
1.45662
1.50449
1.55354
1.60375
1.65515
1.70771
1.76143
1.8163
1.8723
1.92942
1.98763
2.0469
2.10722
2.16853
2.23081
2.294
2.35807
2.42297
2.48864
2.55502
2.62205
2.68968
2.75783
2.82644
2.89542
2.96472
3.03425
3.10393
3.17369
3.24344
3.3131
3.38258
3.4518
3.52068
3.58914
3.65707
3.72441
3.79106
3.85694
3.92197
3.98606
4.04914
4.11113
4.17195
4.23151
4.28976
4.3466
4.40198
4.45581
4.50803
4.55858
4.60737
4.65436
4.69946
4.74262
4.78377
4.82285
4.85978
4.8945
4.92696
4.95708
4.9848
5.01008
5.03284
5.05304
5.07064
5.08557
5.09782
5.10734
5.11411
5.11809
5.11926
5.11768
5.11306
5.10549
5.09509
5.08188
5.06592
5.04723
5.02589
5.00196
4.97552
4.94665
4.91545
4.88202
4.84648
4.80893
4.76952
4.72836
4.68558
4.64133
4.59574
4.54894
4.50107
4.45227
4.40266
4.35237
4.30155
4.25032
4.19881
4.14715
4.09547
4.04389
3.99255
3.94158
3.89108
3.8412
3.79206
3.74378
3.69647
3.65027
3.60529
3.56164
3.51946
3.47884
3.43989
3.40272
3.36744
3.33418
3.30308
3.2743
3.24798
3.22341
3.20017
0.057134
0.108116
0.135473
0.155223
0.17159
0.186119
0.199553
0.212329
0.22473
0.236957
0.249157
0.261447
0.273915
0.286637
0.299672
0.313071
0.326876
0.341125
0.355851
0.371082
0.386846
0.403166
0.420067
0.437571
0.455698
0.47447
0.493907
0.514028
0.534856
0.556391
0.578666
0.601702
0.625514
0.650121
0.67554
0.70179
0.728892
0.756869
0.785745
0.815547
0.846297
0.878022
0.910746
0.944496
0.979295
1.01517
1.05214
1.09024
1.12948
1.16989
1.21149
1.2543
1.29834
1.34362
1.39015
1.43796
1.48704
1.53741
1.58907
1.64202
1.69625
1.75176
1.80853
1.86655
1.9258
1.98625
2.04788
2.11065
2.17453
2.23948
2.30544
2.37237
2.44023
2.50894
2.57845
2.64869
2.7196
2.7911
2.86312
2.93559
3.00842
3.08152
3.15483
3.22824
3.30168
3.37506
3.44828
3.52125
3.59389
3.66611
3.73781
3.8089
3.8793
3.94892
4.01767
4.08546
4.15221
4.21783
4.28226
4.3454
4.40719
4.46755
4.5264
4.58368
4.63932
4.69325
4.74541
4.79573
4.84416
4.89064
4.93509
4.97747
5.01771
5.05575
5.09153
5.12499
5.15607
5.1847
5.21084
5.23443
5.25541
5.27373
5.28935
5.30222
5.31231
5.31958
5.32401
5.32556
5.32427
5.31982
5.31221
5.30165
5.28816
5.27176
5.2525
5.23041
5.20557
5.17805
5.14791
5.11525
5.08016
5.04276
5.00315
4.96146
4.91781
4.87234
4.82517
4.77645
4.72632
4.6749
4.62233
4.56876
4.51433
4.45916
4.40339
4.34718
4.29065
4.23395
4.17722
4.1206
4.06425
4.0083
3.95291
3.89822
3.8444
3.7916
3.73997
3.68968
3.64089
3.59375
3.54842
3.50505
3.46379
3.42478
3.38818
3.35413
3.32277
3.29425
3.26787
3.24351
0.0575242
0.108675
0.136188
0.156051
0.172508
0.187112
0.200614
0.213447
0.225894
0.238152
0.250368
0.262657
0.275111
0.287803
0.300793
0.314133
0.327866
0.342031
0.356662
0.371791
0.387446
0.403654
0.420443
0.437839
0.455866
0.47455
0.493918
0.513996
0.534812
0.556356
0.578691
0.601829
0.625793
0.650603
0.67628
0.702839
0.730315
0.758747
0.788165
0.8186
0.850081
0.882641
0.916309
0.951114
0.987083
1.02424
1.06263
1.10225
1.14315
1.18534
1.22885
1.27368
1.31988
1.36743
1.41637
1.4667
1.51842
1.57154
1.62605
1.68196
1.73925
1.79791
1.85792
1.91926
1.98189
2.0458
2.11094
2.17727
2.24475
2.31332
2.38294
2.45354
2.52507
2.59746
2.67063
2.74452
2.81906
2.89415
2.96972
3.04569
3.12197
3.19847
3.2751
3.35177
3.42838
3.50485
3.58107
3.65695
3.7324
3.80733
3.88163
3.95523
4.02802
4.09991
4.17082
4.24066
4.30935
4.3768
4.44293
4.50767
4.57095
4.63269
4.69282
4.75127
4.80799
4.86292
4.91599
4.96715
5.01634
5.06352
5.10862
5.1516
5.19241
5.23097
5.26726
5.30119
5.33273
5.36181
5.38839
5.4124
5.4338
5.45253
5.46854
5.48179
5.49224
5.49984
5.50458
5.50642
5.50537
5.50108
5.49343
5.48274
5.46901
5.45226
5.43251
5.40981
5.38421
5.35576
5.32453
5.29061
5.25407
5.21503
5.17358
5.12984
5.08394
5.03601
4.98617
4.93457
4.88133
4.8266
4.77051
4.71322
4.65485
4.59555
4.53547
4.47476
4.41356
4.35203
4.29034
4.22862
4.16707
4.10583
4.04508
3.98501
3.9258
3.86764
3.81072
3.75525
3.70143
3.64945
3.59952
3.55184
3.50658
3.46385
3.42391
3.38695
3.35309
3.32248
3.29446
3.26925
0.0574161
0.108511
0.135994
0.155846
0.172293
0.186889
0.200377
0.21319
0.22561
0.237835
0.250011
0.262252
0.274648
0.287272
0.300183
0.313435
0.32707
0.34113
0.355649
0.370661
0.386199
0.402293
0.418974
0.436273
0.454217
0.472836
0.492162
0.512225
0.533056
0.554685
0.577141
0.600452
0.624648
0.64976
0.675826
0.702844
0.730877
0.759965
0.790148
0.821462
0.853945
0.887634
0.922566
0.958767
0.996264
1.03509
1.07527
1.11684
1.15981
1.20421
1.25006
1.29737
1.34616
1.39643
1.44819
1.50145
1.5562
1.61245
1.67017
1.72937
1.79001
1.85208
1.91554
1.98037
2.04653
2.11397
2.18266
2.25253
2.32354
2.39563
2.46874
2.54279
2.61772
2.69346
2.76993
2.84704
2.92473
3.0029
3.08146
3.16033
3.23942
3.31863
3.39787
3.47704
3.55605
3.6348
3.71319
3.79113
3.86852
3.94527
4.02127
4.09645
4.1707
4.24394
4.31608
4.38703
4.45671
4.52504
4.59194
4.65736
4.7212
4.78341
4.84392
4.90266
4.95959
5.01465
5.06779
5.11897
5.16813
5.21524
5.26025
5.30311
5.34378
5.38222
5.41837
5.45219
5.48363
5.51264
5.53917
5.56317
5.58458
5.60336
5.61946
5.63282
5.6434
5.65115
5.65606
5.65811
5.65724
5.65311
5.64544
5.63467
5.62078
5.60378
5.58369
5.56054
5.53436
5.50519
5.47311
5.43816
5.40044
5.36003
5.31703
5.27154
5.2237
5.17361
5.12142
5.06725
5.01123
4.95351
4.89422
4.83351
4.77153
4.70841
4.64432
4.57941
4.51385
4.44779
4.3814
4.31487
4.24839
4.18213
4.11629
4.05108
3.98673
3.92344
3.86146
3.80091
3.74213
3.68536
3.63088
3.57892
3.52973
3.4836
3.44069
3.40114
3.36509
3.33269
3.30331
3.27755
0.0570228
0.107884
0.135161
0.154885
0.17122
0.185707
0.199089
0.211797
0.22411
0.236226
0.248288
0.260411
0.272681
0.285172
0.297945
0.311051
0.324539
0.33845
0.352825
0.367699
0.383111
0.399098
0.415697
0.432949
0.450893
0.469566
0.489003
0.509241
0.530324
0.5523
0.575187
0.599017
0.623828
0.64965
0.676501
0.704419
0.733494
0.763779
0.795315
0.828139
0.86229
0.897798
0.934692
0.973007
1.01277
1.05402
1.09678
1.14108
1.18695
1.23437
1.28337
1.33394
1.38609
1.43982
1.49512
1.55198
1.61039
1.67034
1.73179
1.79472
1.8591
1.92489
1.99205
2.06054
2.1303
2.20129
2.27344
2.34671
2.42102
2.49631
2.57251
2.64954
2.72734
2.80582
2.8849
2.96451
3.04455
3.12494
3.20558
3.2864
3.36729
3.44817
3.52894
3.6095
3.68976
3.76963
3.84901
3.9278
4.00591
4.08325
4.15972
4.23524
4.30971
4.38306
4.45519
4.52602
4.59548
4.66349
4.72998
4.79489
4.85815
4.9197
4.97948
5.03743
5.0935
5.14767
5.19989
5.25012
5.29832
5.34446
5.3885
5.43042
5.47017
5.50772
5.54303
5.57607
5.60677
5.63512
5.66106
5.68456
5.70556
5.72401
5.73984
5.75302
5.76348
5.77119
5.77611
5.77828
5.77756
5.77358
5.76593
5.75513
5.74117
5.72405
5.70377
5.68034
5.65378
5.62414
5.59144
5.55575
5.51712
5.47564
5.4314
5.38449
5.33503
5.28313
5.22891
5.17251
5.11406
5.0537
4.99156
4.92779
4.86253
4.79594
4.72818
4.6594
4.5898
4.51953
4.44878
4.37776
4.30663
4.23556
4.16481
4.09464
4.0253
3.95704
3.89014
3.825
3.76181
3.70081
3.64232
3.58663
3.534
3.48476
3.439
3.39701
3.35891
3.32491
3.29436
3.26835
0.0561167
0.106526
0.133466
0.152944
0.169062
0.183347
0.19654
0.209072
0.221224
0.23319
0.245114
0.257108
0.269257
0.281637
0.294309
0.30733
0.320751
0.33462
0.348984
0.363889
0.379378
0.395495
0.41229
0.429813
0.448131
0.467265
0.487257
0.508155
0.530001
0.552815
0.576616
0.601492
0.627507
0.654722
0.68321
0.713014
0.744184
0.776769
0.810811
0.846348
0.883412
0.922031
0.962227
1.00402
1.04743
1.09248
1.13916
1.1875
1.23747
1.28907
1.34229
1.39712
1.45355
1.51155
1.5711
1.63217
1.69473
1.75873
1.82414
1.89091
1.95901
2.02837
2.09895
2.17069
2.24354
2.31743
2.3923
2.46809
2.54474
2.62216
2.70031
2.77909
2.85844
2.93828
3.01853
3.09912
3.17996
3.26097
3.34207
3.42316
3.50417
3.58501
3.66558
3.7458
3.82558
3.90483
3.98346
4.06138
4.13851
4.21474
4.29001
4.36422
4.4373
4.50916
4.57972
4.64892
4.71666