/*--------------------------------*- C++ -*----------------------------------*\
  =========                 |
  \\      /  F ield         | OpenFOAM: The Open Source CFD Toolbox
   \\    /   O peration     | Website:  https://openfoam.org
    \\  /    A nd           | Version:  11
     \\/     M anipulation  |
\*---------------------------------------------------------------------------*/
FoamFile
{
    format      ascii;
    class       volScalarField;
    location    "200";
    object      nut;
}
// * * * * * * * * * * * * * * * * * * * * * * * * * * * * * * * * * * * * * //

dimensions      [0 2 -1 0 0 0 0];

internalField   nonuniform List<scalar> 
12225
(
4.14924e-05
3.93409e-05
3.74829e-05
3.5433e-05
3.37838e-05
3.24211e-05
3.15093e-05
3.09116e-05
3.09181e-05
3.10935e-05
3.15729e-05
3.20997e-05
3.31534e-05
3.38252e-05
3.50725e-05
3.58162e-05
3.68823e-05
3.86262e-05
0.000332215
0.000215176
0.000179269
0.000157677
0.000146208
0.000138209
0.000132729
0.000131667
0.000129494
0.000130079
0.000129033
0.000129455
0.000128644
0.000128577
0.000128068
0.000127415
0.00012748
0.000125992
0.000668679
0.000450661
0.000355751
0.000309835
0.000275275
0.000251103
0.000231698
0.000217283
0.000202655
0.000192135
0.000182598
0.000175212
0.000169353
0.00016368
0.000160274
0.000155548
0.00015381
0.000149727
0.000801681
0.000691666
0.000572541
0.000500062
0.000449369
0.000411995
0.000380759
0.000356015
0.000333985
0.000314785
0.000298353
0.000281624
0.000270319
0.000256051
0.000248188
0.000236092
0.00023051
0.000220316
0.000839623
0.00081019
0.000740695
0.000676421
0.000623918
0.000581394
0.000545852
0.000514564
0.000489501
0.000464428
0.000445851
0.000424051
0.000409919
0.00039078
0.000379871
0.000362986
0.000354753
0.000339294
0.000850344
0.000843278
0.000819552
0.000786529
0.000750764
0.000715889
0.000685747
0.000656132
0.000632538
0.000607512
0.000588987
0.000567233
0.000552266
0.000533072
0.00052077
0.000503616
0.000493642
0.000477252
0.000851579
0.000851019
0.000843299
0.000833478
0.000817108
0.000796952
0.000777866
0.000756734
0.000738895
0.000719141
0.000703526
0.00068561
0.00067211
0.000655902
0.000644298
0.000629431
0.000619828
0.000604943
0.000851581
0.000851816
0.000850037
0.000847462
0.0008414
0.00083375
0.000824822
0.000813432
0.000802808
0.000790467
0.00077971
0.000767532
0.000757417
0.000745767
0.000736539
0.00072544
0.000717467
0.000705845
0.000851673
0.000851531
0.000851015
0.000850343
0.000848875
0.00084617
0.000843026
0.000838304
0.000833401
0.000827359
0.000821215
0.000814765
0.000808427
0.000801496
0.000795287
0.00078831
0.000782509
0.000774924
0.000851754
0.000851386
0.000851043
0.000850633
0.000850247
0.000849368
0.000848404
0.00084678
0.000844955
0.000842529
0.000839922
0.000836797
0.000833793
0.000830146
0.00082697
0.00082291
0.000819917
0.000815276
0.000851784
0.000851358
0.000851012
0.000850613
0.000850329
0.000849905
0.000849525
0.000848928
0.000848303
0.000847393
0.000846465
0.000845176
0.000843989
0.000842349
0.000840994
0.000839028
0.000837637
0.000835356
0.000851788
0.000851359
0.000850995
0.000850605
0.000850292
0.000849938
0.000849646
0.00084928
0.000848955
0.000848504
0.000848098
0.000847507
0.000846997
0.000846243
0.00084564
0.000844719
0.000844056
0.000842974
0.000851786
0.000851363
0.000850985
0.000850604
0.000850269
0.000849926
0.00084963
0.000849313
0.000849042
0.000848728
0.000848462
0.000848126
0.000847843
0.000847465
0.000847156
0.000846725
0.000846386
0.000845901
0.000851783
0.000851364
0.000850978
0.000850602
0.000850256
0.000849916
0.000849607
0.0008493
0.000849022
0.00084874
0.000848488
0.000848224
0.000847988
0.000847734
0.000847508
0.000847257
0.000847033
0.000846783
0.000851781
0.000851364
0.000850973
0.000850598
0.000850246
0.000849908
0.000849591
0.000849286
0.000849
0.000848723
0.000848463
0.000848211
0.000847975
0.000847744
0.000847528
0.000847316
0.000847115
0.000846919
0.00085178
0.000851363
0.000850969
0.000850594
0.000850239
0.000849901
0.00084958
0.000849275
0.000848984
0.000848707
0.000848443
0.000848191
0.000847951
0.000847721
0.000847502
0.000847293
0.000847093
0.000846901
0.000851779
0.000851362
0.000850967
0.000850591
0.000850234
0.000849895
0.000849572
0.000849265
0.000848973
0.000848694
0.000848428
0.000848175
0.000847933
0.000847701
0.00084748
0.000847269
0.000847067
0.000846874
0.000851779
0.000851362
0.000850965
0.000850588
0.000850231
0.00084989
0.000849567
0.000849259
0.000848965
0.000848685
0.000848418
0.000848163
0.00084792
0.000847687
0.000847465
0.000847252
0.000847049
0.000846854
0.000851779
0.000851362
0.000850965
0.000850588
0.00085023
0.000849889
0.000849565
0.000849256
0.000848962
0.000848681
0.000848414
0.000848158
0.000847914
0.00084768
0.000847457
0.000847243
0.000847039
0.000846844
0.000851779
0.000851362
0.000850966
0.000850589
0.000850231
0.000849891
0.000849567
0.000849259
0.000848965
0.000848685
0.000848417
0.000848162
0.000847917
0.000847684
0.00084746
0.000847246
0.000847041
0.000846845
0.000851779
0.000851363
0.000850967
0.000850592
0.000850235
0.000849897
0.000849573
0.000849267
0.000848972
0.000848694
0.000848424
0.000848169
0.00084792
0.000847683
0.000847451
0.000847231
0.000847013
0.000846806
0.000851778
0.000851366
0.000850968
0.000850599
0.00085024
0.000849907
0.00084958
0.000849274
0.000848964
0.000848671
0.000848365
0.000848072
0.000847756
0.000847456
0.000847123
0.000846811
0.000846457
0.000846136
0.000851773
0.000851376
0.000850971
0.000850615
0.000850241
0.000849889
0.000849478
0.000849054
0.000848529
0.000847978
0.000847301
0.000846605
0.000845767
0.000844939
0.000843955
0.000843029
0.000841918
0.00084094
0.000851768
0.000851415
0.000850964
0.000850548
0.000849861
0.000848966
0.00084761
0.000845976
0.000843905
0.000841636
0.000838955
0.000836214
0.000833117
0.000830114
0.000826763
0.00082368
0.000820184
0.000817178
0.000851859
0.00085138
0.000850195
0.000848243
0.00084447
0.000839354
0.000832765
0.000825658
0.000817962
0.000810011
0.000801618
0.000793628
0.000785332
0.000777707
0.000769744
0.000762701
0.000755124
0.000748795
0.000852108
0.000847667
0.000839902
0.000827146
0.000808707
0.000789646
0.000769975
0.000751413
0.000733305
0.000716896
0.000700934
0.000686781
0.000672831
0.000660671
0.000648379
0.000637942
0.000626955
0.000618021
0.000843241
0.000822506
0.000775185
0.000726459
0.000684894
0.000649852
0.000618461
0.00059202
0.000568382
0.000548312
0.000529689
0.000513992
0.000498752
0.000486017
0.000473203
0.00046271
0.000451624
0.000442807
0.000795685
0.000668241
0.000570627
0.000509905
0.000465605
0.000431183
0.000404146
0.000382481
0.0003642
0.00034907
0.000335942
0.000325062
0.000314508
0.000306237
0.000297961
0.000291369
0.000284283
0.000278933
0.000501314
0.000348356
0.000292674
0.00025918
0.000236323
0.000221177
0.000211621
0.000203855
0.000198564
0.000195076
0.000192221
0.000190368
0.000188583
0.000187438
0.000186166
0.000185472
0.000184555
0.000184142
7.27384e-05
7.02255e-05
6.79541e-05
6.56137e-05
6.33828e-05
6.12762e-05
5.94944e-05
5.79551e-05
5.67109e-05
5.57031e-05
5.49776e-05
5.44178e-05
5.41096e-05
5.38809e-05
5.38974e-05
5.39325e-05
5.40913e-05
5.43237e-05
4.87361e-07
1.08015e-05
1.92301e-05
2.71974e-05
3.56351e-05
4.46289e-05
5.4254e-05
6.4472e-05
7.51092e-05
8.59639e-05
9.68092e-05
0.000107467
0.000117765
0.000127577
0.000136777
0.000145282
0.000153016
0.000159976
0.000166209
0.000171897
0.000177342
0.000182072
0.000187063
0.00019628
0.000206914
0.000219238
0.000230732
0.000238265
0.000236143
0.000230877
0.000219557
0.000209968
0.000202022
0.000182382
3.82831e-05
4.54577e-05
4.76644e-05
4.84321e-05
4.95689e-05
5.0732e-05
5.18393e-05
5.29846e-05
5.41027e-05
5.52323e-05
5.63521e-05
5.74721e-05
5.8588e-05
5.97011e-05
6.08116e-05
6.19187e-05
6.30238e-05
6.41256e-05
6.52254e-05
6.63221e-05
6.74167e-05
6.8508e-05
6.95971e-05
7.06828e-05
7.17657e-05
7.2845e-05
7.3921e-05
7.49929e-05
7.6061e-05
7.71242e-05
7.81828e-05
7.92359e-05
8.02836e-05
8.13248e-05
8.23598e-05
8.33875e-05
8.44078e-05
8.54198e-05
8.64235e-05
8.74177e-05
8.84024e-05
8.93767e-05
9.03402e-05
9.12922e-05
9.22323e-05
9.31597e-05
9.40738e-05
9.49739e-05
9.58593e-05
9.67293e-05
9.7583e-05
9.84195e-05
9.92379e-05
0.000100037
0.000100816
0.000101573
0.000102307
0.000103016
0.0001037
0.000104359
0.000104998
0.00010562
0.000106218
0.000106792
0.000107343
0.000107871
0.000108373
0.000108851
0.000109302
0.000109728
0.000110126
0.000110497
0.00011084
0.000111154
0.000111439
0.000111695
0.00011192
0.000112114
0.000112278
0.000112409
0.000112509
0.000112577
0.000112611
0.000112614
0.000112584
0.000112524
0.000112419
0.000112287
0.000112122
0.000111911
0.000111671
0.000111415
0.000111128
0.000110797
0.000110437
0.000110044
0.000109619
0.000109165
0.000108681
0.000108167
0.000107626
0.000107057
0.000106461
0.000105843
0.000105204
0.000104545
0.000103868
0.000103175
0.000102468
0.000101749
0.00010102
0.000100283
9.95411e-05
9.87935e-05
9.80456e-05
9.72969e-05
9.65524e-05
9.58113e-05
9.50783e-05
9.43518e-05
9.36378e-05
9.29348e-05
9.22485e-05
9.15778e-05
9.09273e-05
9.0295e-05
8.96873e-05
8.91019e-05
8.85431e-05
8.80163e-05
8.75817e-05
8.77016e-05
8.75401e-05
8.72727e-05
8.70578e-05
8.68758e-05
8.6735e-05
8.66129e-05
8.6514e-05
8.64415e-05
8.64112e-05
8.6402e-05
8.63134e-05
8.61918e-05
8.59743e-05
8.47177e-05
2.09637e-06
3.90053e-05
8.21316e-05
0.000111804
0.000131679
0.000146912
0.000160223
0.000172955
0.000185625
0.000198322
0.000210931
0.000223274
0.000235159
0.000246413
0.000256877
0.000266422
0.000274954
0.000282442
0.000288947
0.000294672
0.000299998
0.000305201
0.000310116
0.000315202
0.000320405
0.000325188
0.000328504
0.000327186
0.000321393
0.00031166
0.000297344
0.000281612
0.000278557
0.000254968
0.000243285
0.000261493
0.000272436
0.000278569
0.000285566
0.00029275
0.00030042
0.000308105
0.000315974
0.000323925
0.00033198
0.000340114
0.000348326
0.00035661
0.000364966
0.000373392
0.000381892
0.000390463
0.000399111
0.000407835
0.000416641
0.000425526
0.000434497
0.000443551
0.000452694
0.000461923
0.000471243
0.000480651
0.00049015
0.000499738
0.000509417
0.000519182
0.000529037
0.000538975
0.000548999
0.000559102
0.000569287
0.000579546
0.00058988
0.000600282
0.000610752
0.000621282
0.000631872
0.000642513
0.000653207
0.000663944
0.000674726
0.000685543
0.000696396
0.000707278
0.000718189
0.000729119
0.000740066
0.000751019
0.000761968
0.000772889
0.000783747
0.000794476
0.000804959
0.000815016
0.000824345
0.000833471
0.00084249
0.000851395
0.000860178
0.00086883
0.000877342
0.000885704
0.000893906
0.000901937
0.000909786
0.000917443
0.000924897
0.000932136
0.000939148
0.000945924
0.000952449
0.000958715
0.000964708
0.000970419
0.000975834
0.000980945
0.00098574
0.000990211
0.000994351
0.000998163
0.00100168
0.00100495
0.00100783
0.00101006
0.00101179
0.00101355
0.00101506
0.00101605
0.00101666
0.00101692
0.0010168
0.00101634
0.00101552
0.00101437
0.00101289
0.0010111
0.001009
0.00100663
0.00100397
0.00100105
0.000997892
0.000994508
0.000990925
0.000987164
0.000983248
0.000979198
0.000975038
0.000970788
0.000966479
0.000962127
0.000957763
0.000953401
0.000949071
0.000944785
0.000940578
0.000936462
0.000932471
0.000928617
0.000924929
0.000921412
0.000918094
0.000914969
0.000912056
0.000909348
0.000906835
0.000904355
0.000899702
0.000895206
0.000890886
0.000886643
0.000882582
0.000878439
0.000874196
0.000869851
0.000865499
0.00086095
0.000855844
0.000849538
0.000840755
0.000816277
4.16938e-06
6.10296e-05
0.000126335
0.00017614
0.000212503
0.000239356
0.000260258
0.000277724
0.000293325
0.000307913
0.000321869
0.000335297
0.000348154
0.000360332
0.000371705
0.00038215
0.000391577
0.000399947
0.000407297
0.000413747
0.000419481
0.000424951
0.000431212
0.000438634
0.000447035
0.00045589
0.000464093
0.000470807
0.000475786
0.000479391
0.00048273
0.00048708
0.000493706
0.000498987
0.00051064
0.000528348
0.000544408
0.000559725
0.000575247
0.000590857
0.000606705
0.000622693
0.000638846
0.000655138
0.000671568
0.000688129
0.00070482
0.00072164
0.000738591
0.000755674
0.000772894
0.000790254
0.000807757
0.000825406
0.000843205
0.000861154
0.000879258
0.000897517
0.000915933
0.000934504
0.000953233
0.000972116
0.000991155
0.00101034
0.00102968
0.00104917
0.00106879
0.00108856
0.00110845
0.00112847
0.00114861
0.00116886
0.00118922
0.00120968
0.00123022
0.00125084
0.00127154
0.00129229
0.0013131
0.00133395
0.00135483
0.00137573
0.00139664
0.00141755
0.00143845
0.00145931
0.00148012
0.00150086
0.00152149
0.00154197
0.00156225
0.00158226
0.00160189
0.00162107
0.00163979
0.00165826
0.00167651
0.00169451
0.00171226
0.00172972
0.00174689
0.00176374
0.00178025
0.00179641
0.00181218
0.00182755
0.00184249
0.00185699
0.00187102
0.00188456
0.00189759
0.00191008
0.00192202
0.00193337
0.00194413
0.00195426
0.00196376
0.00197261
0.00198079
0.00198831
0.00199516
0.00200135
0.00200704
0.00201171
0.00201514
0.00201827
0.00202097
0.00202276
0.00202379
0.00202406
0.00202361
0.00202244
0.00202056
0.002018
0.00201477
0.0020109
0.00200641
0.00200134
0.0019957
0.00198953
0.00198286
0.00197575
0.00196822
0.00196034
0.00195213
0.00194365
0.00193493
0.00192604
0.001917
0.00190787
0.00189871
0.00188954
0.00188041
0.00187138
0.00186248
0.00185376
0.00184526
0.00183702
0.00182908
0.00182147
0.0018142
0.0018073
0.00180076
0.00179458
0.00178866
0.00178262
0.00177507
0.00176754
0.00175993
0.00175246
0.00174549
0.00173821
0.00173049
0.00172269
0.00171516
0.0017071
0.00169801
0.00168641
0.0016698
0.00163013
6.34182e-06
7.76756e-05
0.000159707
0.000224308
0.000272804
0.000309286
0.000337526
0.000360382
0.000379855
0.000397232
0.000413268
0.000428355
0.000442661
0.000456223
0.000469017
0.000481006
0.000492173
0.000502557
0.000512282
0.00052159
0.000530851
0.000540568
0.000551293
0.000563361
0.000576804
0.000591351
0.000606446
0.000621563
0.000636465
0.000651318
0.000666596
0.000682731
0.00069945
0.000718115
0.000739012
0.000761444
0.000783574
0.000805597
0.000827827
0.00085027
0.000872892
0.00089568
0.000918635
0.000941755
0.000965041
0.000988493
0.00101211
0.0010359
0.00105987
0.00108401
0.00110833
0.00113285
0.00115756
0.00118247
0.00120757
0.00123289
0.0012584
0.00128413
0.00131005
0.00133618
0.00136252
0.00138905
0.00141578
0.0014427
0.0014698
0.00149709
0.00152454
0.00155216
0.00157994
0.00160787
0.00163593
0.00166411
0.00169241
0.00172082
0.00174931
0.00177788
0.00180651
0.00183519
0.0018639
0.00189263
0.00192136
0.00195008
0.00197876
0.0020074
0.00203595
0.00206441
0.00209275
0.00212092
0.00214891
0.00217666
0.00220412
0.00223124
0.00225796
0.00228424
0.00231014
0.00233572
0.00236098
0.0023859
0.00241045
0.00243461
0.00245836
0.00248166
0.00250449
0.00252683
0.00254864
0.00256991
0.00259059
0.00261066
0.00263009
0.00264886
0.00266693
0.00268427
0.00270086
0.00271666
0.00273165
0.0027458
0.00275908
0.00277149
0.00278299
0.00279358
0.00280323
0.00281194
0.00281995
0.00282689
0.00283213
0.00283658
0.00284046
0.00284318
0.00284484
0.00284546
0.00284506
0.00284365
0.00284126
0.0028379
0.00283361
0.00282841
0.00282233
0.00281542
0.0028077
0.00279923
0.00279006
0.00278023
0.00276982
0.00275887
0.00274745
0.00273562
0.00272343
0.00271096
0.00269827
0.00268542
0.00267248
0.0026595
0.00264657
0.00263373
0.00262105
0.0026086
0.00259643
0.00258459
0.00257314
0.00256211
0.00255155
0.00254147
0.00253188
0.00252276
0.00251403
0.00250535
0.00249602
0.00248665
0.00247727
0.00246814
0.0024592
0.00245035
0.00244121
0.00243208
0.00242287
0.00241313
0.00240235
0.00238898
0.0023691
0.00232705
8.43829e-06
9.15279e-05
0.000187351
0.000264156
0.000323238
0.000368304
0.000403332
0.000431439
0.000454926
0.000475395
0.000493904
0.000511109
0.000527394
0.00054297
0.000557951
0.00057241
0.000586421
0.00060009
0.000613586
0.000627156
0.00064113
0.000655888
0.000671799
0.00068911
0.000707861
0.000727849
0.000748758
0.000770288
0.000792264
0.000814707
0.000837819
0.000861848
0.000886369
0.000911653
0.000937839
0.000964596
0.000991742
0.00101913
0.00104666
0.00107431
0.00110213
0.00113014
0.00115833
0.00118671
0.00121529
0.00124407
0.00127305
0.00130223
0.00133161
0.0013612
0.001391
0.00142103
0.00145128
0.00148177
0.0015125
0.00154346
0.00157465
0.00160608
0.00163775
0.00166964
0.00170176
0.0017341
0.00176666
0.00179942
0.00183238
0.00186552
0.00189885
0.00193235
0.001966
0.0019998
0.00203373
0.00206778
0.00210192
0.00213616
0.00217046
0.00220482
0.00223921
0.00227362
0.00230803
0.00234242
0.00237678
0.00241107
0.00244527
0.00247937
0.00251334
0.00254715
0.00258078
0.00261418
0.00264734
0.0026802
0.00271275
0.00274495
0.00277678
0.00280822
0.00283929
0.00286998
0.00290029
0.00293019
0.00295965
0.00298865
0.00301716
0.00304515
0.00307259
0.00309945
0.0031257
0.00315131
0.00317625
0.00320048
0.00322397
0.00324668
0.00326859
0.00328966
0.00330986
0.00332915
0.0033475
0.00336487
0.00338125
0.0033966
0.00341089
0.0034241
0.00343622
0.00344721
0.0034573
0.00346636
0.00347357
0.00347949
0.00348471
0.00348862
0.00349126
0.00349265
0.00349281
0.00349176
0.0034895
0.00348607
0.0034815
0.00347581
0.00346905
0.00346125
0.00345246
0.00344273
0.00343213
0.0034207
0.00340853
0.00339567
0.0033822
0.00336818
0.0033537
0.00333883
0.00332364
0.00330822
0.00329264
0.00327698
0.00326132
0.00324574
0.00323031
0.00321512
0.00320023
0.00318571
0.00317163
0.00315804
0.00314498
0.00313249
0.0031206
0.00310929
0.00309849
0.00308801
0.00307746
0.00306704
0.00305675
0.00304671
0.0030368
0.00302707
0.00301727
0.00300749
0.00299761
0.0029873
0.00297612
0.00296271
0.00294335
0.0029046
1.03955e-05
0.000103088
0.000210423
0.000297734
0.000366253
0.000419231
0.000460746
0.00049409
0.000521776
0.000545651
0.000567014
0.000586751
0.000605445
0.000623475
0.00064109
0.000658467
0.00067575
0.000693087
0.000710647
0.000728632
0.000747277
0.000766829
0.000787508
0.000809454
0.000832686
0.000857094
0.000882489
0.000908666
0.000935478
0.000962868
0.000990859
0.00101947
0.00104863
0.00107836
0.00110863
0.00113933
0.00117037
0.00120167
0.00123318
0.00126488
0.00129677
0.00132886
0.00136115
0.00139364
0.00142634
0.00145925
0.00149238
0.00152574
0.00155932
0.00159315
0.00162722
0.00166152
0.00169606
0.00173084
0.00176585
0.0018011
0.00183659
0.00187231
0.00190826
0.00194443
0.00198081
0.00201742
0.00205422
0.00209122
0.0021284
0.00216576
0.00220328
0.00224095
0.00227876
0.00231669
0.00235473
0.00239286
0.00243107
0.00246934
0.00250765
0.00254599
0.00258433
0.00262266
0.00266096
0.0026992
0.00273737
0.00277544
0.0028134
0.00285122
0.00288887
0.00292632
0.00296357
0.00300056
0.00303729
0.00307372
0.00310983
0.00314559
0.003181
0.00321604
0.00325068
0.00328493
0.00331876
0.00335214
0.00338506
0.00341748
0.00344937
0.00348071
0.00351147
0.00354161
0.0035711
0.00359991
0.00362801
0.00365537
0.00368194
0.00370769
0.0037326
0.00375661
0.00377969
0.00380181
0.00382293
0.00384301
0.00386202
0.00387993
0.0038967
0.00391231
0.00392672
0.0039399
0.00395203
0.00396314
0.00397245
0.00398012
0.00398689
0.00399227
0.00399626
0.00399885
0.00400004
0.00399986
0.00399831
0.00399543
0.00399125
0.00398579
0.00397909
0.00397119
0.00396214
0.00395199
0.00394081
0.00392866
0.00391562
0.00390174
0.00388712
0.00387183
0.00385594
0.00383955
0.00382274
0.00380559
0.00378821
0.00377067
0.00375306
0.00373549
0.00371803
0.00370078
0.00368382
0.00366723
0.00365109
0.00363547
0.00362043
0.00360601
0.00359225
0.00357916
0.00356671
0.00355478
0.00354316
0.00353189
0.00352094
0.00351035
0.00350007
0.00349006
0.00348021
0.00347049
0.00346079
0.0034509
0.00344042
0.00342822
0.00341112
0.00337887
1.21649e-05
0.000112612
0.00022952
0.000325963
0.000402938
0.000463322
0.000511113
0.000549713
0.000581782
0.000609338
0.000633871
0.000656449
0.000677824
0.000698518
0.000718894
0.000739213
0.000759676
0.000780451
0.000801693
0.000823558
0.000846199
0.000869763
0.000894367
0.000920077
0.000946892
0.000974744
0.00100351
0.00103307
0.00106329
0.00109411
0.00112548
0.00115739
0.0011898
0.00122268
0.00125599
0.00128967
0.00132367
0.00135794
0.00139244
0.00142716
0.00146208
0.0014972
0.00153253
0.00156807
0.00160381
0.00163976
0.00167594
0.00171233
0.00174895
0.0017858
0.00182289
0.0018602
0.00189774
0.00193551
0.00197351
0.00201174
0.00205019
0.00208887
0.00212776
0.00216686
0.00220616
0.00224566
0.00228535
0.00232522
0.00236526
0.00240546
0.0024458
0.00248627
0.00252686
0.00256755
0.00260834
0.00264919
0.00269011
0.00273106
0.00277204
0.00281302
0.00285399
0.00289492
0.0029358
0.00297661
0.00301732
0.00305792
0.00309839
0.00313869
0.00317882
0.00321874
0.00325843
0.00329788
0.00333705
0.00337593
0.0034145
0.00345273
0.00349061
0.00352812
0.00356524
0.00360197
0.00363826
0.00367411
0.00370949
0.00374437
0.00377872
0.00381252
0.00384573
0.00387833
0.00391028
0.00394156
0.00397213
0.00400195
0.00403099
0.00405921
0.00408658
0.00411306
0.0041386
0.00416317
0.00418673
0.00420924
0.00423066
0.00425095
0.00427007
0.00428799
0.00430467
0.00432007
0.00433431
0.00434751
0.00435898
0.00436875
0.00437731
0.00438448
0.00439016
0.00439431
0.00439694
0.00439807
0.00439771
0.00439588
0.00439261
0.00438792
0.00438186
0.00437445
0.00436574
0.0043558
0.00434467
0.00433242
0.00431913
0.00430487
0.00428972
0.00427375
0.00425706
0.00423974
0.00422187
0.00420356
0.00418489
0.00416597
0.0041469
0.00412778
0.0041087
0.00408978
0.0040711
0.00405276
0.00403484
0.00401745
0.00400064
0.00398448
0.00396903
0.00395432
0.00394034
0.00392705
0.00391434
0.00390218
0.00389056
0.00387947
0.00386887
0.00385873
0.00384898
0.00383957
0.00383043
0.0038214
0.00381219
0.00380188
0.00378787
0.00376308
1.37117e-05
0.000120277
0.00024503
0.000349613
0.000433967
0.000501223
0.000555048
0.000598871
0.000635428
0.000666853
0.000694767
0.000720377
0.000744565
0.000767967
0.000791039
0.000814112
0.000837426
0.000861166
0.000885478
0.000910486
0.000936295
0.000962992
0.000990634
0.00101924
0.0010488
0.00107925
0.00111053
0.00114254
0.00117519
0.00120842
0.00124218
0.00127643
0.00131112
0.00134624
0.00138174
0.00141757
0.0014537
0.00149009
0.00152671
0.00156354
0.00160057
0.0016378
0.00167522
0.00171284
0.00175066
0.00178867
0.00182689
0.00186532
0.00190396
0.0019428
0.00198186
0.00202114
0.00206062
0.00210032
0.00214023
0.00218035
0.00222067
0.0022612
0.00230192
0.00234284
0.00238395
0.00242523
0.00246669
0.00250831
0.00255008
0.00259199
0.00263403
0.00267619
0.00271845
0.00276081
0.00280324
0.00284574
0.00288828
0.00293085
0.00297344
0.00301602
0.00305859
0.00310111
0.00314358
0.00318597
0.00322826
0.00327045
0.00331249
0.00335438
0.0033961
0.00343762
0.00347892
0.00351998
0.00356079
0.00360132
0.00364156
0.00368148
0.00372108
0.00376032
0.00379919
0.00383768
0.00387576
0.00391341
0.00395061
0.00398733
0.00402355
0.00405924
0.00409437
0.00412892
0.00416285
0.00419614
0.00422875
0.00426064
0.00429179
0.00432215
0.00435169
0.00438037
0.00440814
0.00443497
0.00446081
0.00448562
0.00450936
0.00453198
0.00455344
0.00457369
0.0045927
0.00461042
0.00462692
0.00464232
0.00465606
0.00466818
0.00467885
0.0046881
0.00469578
0.00470183
0.00470626
0.00470907
0.00471028
0.00470991
0.00470798
0.0047045
0.00469951
0.00469304
0.00468513
0.00467584
0.00466522
0.00465333
0.00464024
0.00462602
0.00461076
0.00459454
0.00457745
0.00455957
0.004541
0.00452184
0.00450221
0.00448219
0.0044619
0.00444145
0.00442096
0.00440052
0.00438025
0.00436027
0.00434066
0.00432154
0.00430299
0.00428509
0.00426793
0.00425155
0.004236
0.00422126
0.0042073
0.0041941
0.00418165
0.00416993
0.00415894
0.00414864
0.004139
0.00412999
0.00412156
0.00411362
0.00410598
0.00409791
0.00408733
0.00406943
1.50149e-05
0.00012625
0.000257295
0.000368835
0.000459743
0.000533309
0.000592857
0.000641772
0.000682814
0.000718175
0.000749562
0.000778276
0.000805295
0.000831342
0.000856948
0.000882502
0.000908278
0.000934471
0.000961226
0.000988648
0.00101681
0.00104584
0.00107572
0.00110645
0.001138
0.00117032
0.00120337
0.00123707
0.00127137
0.0013062
0.00134151
0.00137727
0.00141344
0.00144999
0.00148689
0.00152413
0.00156162
0.00159934
0.00163727
0.00167539
0.00171368
0.00175215
0.00179079
0.0018296
0.00186858
0.00190774
0.00194708
0.00198661
0.00202632
0.00206621
0.0021063
0.00214657
0.00218704
0.00222769
0.00226854
0.00230958
0.0023508
0.00239221
0.0024338
0.00247558
0.00251752
0.00255963
0.0026019
0.00264433
0.0026869
0.0027296
0.00277244
0.00281539
0.00285844
0.00290159
0.00294482
0.00298812
0.00303147
0.00307486
0.00311828
0.0031617
0.00320511
0.0032485
0.00329185
0.00333514
0.00337835
0.00342146
0.00346446
0.00350733
0.00355005
0.00359259
0.00363494
0.00367709
0.003719
0.00376067
0.00380208
0.00384321
0.00388403
0.00392454
0.00396471
0.00400453
0.00404397
0.00408302
0.00412165
0.00415984
0.00419757
0.00423481
0.00427154
0.00430773
0.00434336
0.00437839
0.00441279
0.00444653
0.00447958
0.0045119
0.00454346
0.0045742
0.0046041
0.0046331
0.00466116
0.00468824
0.00471429
0.00473925
0.0047631
0.00478576
0.0048072
0.00482737
0.00484631
0.00486404
0.00488023
0.00489488
0.00490797
0.00491958
0.00492957
0.00493783
0.00494436
0.00494918
0.0049523
0.00495373
0.00495348
0.00495157
0.00494802
0.00494285
0.00493611
0.00492783
0.00491806
0.00490687
0.00489431
0.00488047
0.00486541
0.00484921
0.00483198
0.00481379
0.00479475
0.00477496
0.00475453
0.00473357
0.00471219
0.00469052
0.00466867
0.00464676
0.00462492
0.00460326
0.00458192
0.004561
0.00454061
0.00452086
0.00450186
0.00448367
0.00446637
0.00444999
0.00443456
0.00442008
0.00440657
0.00439403
0.00438247
0.00437188
0.00436225
0.00435359
0.0043459
0.00433915
0.0043332
0.0043275
0.00432042
0.00430846
1.60648e-05
0.00013068
0.000266588
0.000383929
0.000480578
0.00055985
0.000624725
0.000678495
0.000723895
0.000763133
0.000797958
0.000829732
0.000859495
0.000888032
0.000915926
0.000943677
0.000971552
0.000999744
0.00102839
0.00105759
0.00108737
0.00111791
0.0011492
0.00118125
0.00121402
0.00124747
0.00128157
0.00131626
0.00135149
0.00138721
0.00142338
0.00145996
0.00149691
0.00153421
0.00157182
0.00160971
0.00164776
0.00168605
0.00172452
0.00176313
0.00180187
0.00184073
0.00187973
0.00191887
0.00195814
0.00199756
0.00203713
0.00207686
0.00211674
0.00215678
0.00219698
0.00223736
0.0022779
0.00231862
0.00235951
0.00240058
0.00244182
0.00248325
0.00252485
0.00256662
0.00260857
0.0026507
0.00269298
0.00273543
0.00277804
0.0028208
0.0028637
0.00290674
0.00294991
0.00299319
0.00303658
0.00308007
0.00312364
0.00316728
0.00321097
0.00325471
0.00329847
0.00334225
0.00338602
0.00342976
0.00347347
0.00351712
0.00356069
0.00360416
0.00364753
0.00369076
0.00373384
0.00377675
0.00381947
0.00386199
0.00390428
0.00394633
0.00398813
0.00402964
0.00407086
0.00411176
0.00415233
0.00419255
0.0042324
0.00427185
0.00431089
0.0043495
0.00438765
0.00442531
0.00446247
0.0044991
0.00453516
0.00457063
0.00460547
0.00463965
0.00467314
0.00470589
0.00473785
0.004769
0.00479927
0.00482863
0.00485701
0.00488438
0.00491067
0.00493584
0.00495982
0.00498258
0.00500411
0.00502436
0.00504316
0.00506051
0.0050763
0.00509053
0.00510313
0.00511386
0.00512278
0.00512989
0.00513522
0.00513876
0.00514051
0.00514048
0.00513868
0.00513513
0.00512985
0.00512288
0.00511427
0.00510406
0.00509231
0.0050791
0.00506449
0.00504856
0.00503139
0.00501309
0.00499375
0.00497347
0.00495237
0.00493056
0.00490816
0.0048853
0.00486211
0.00483872
0.00481527
0.00479188
0.0047687
0.00474586
0.0047235
0.00470174
0.00468071
0.00466051
0.00464125
0.00462302
0.00460586
0.00458985
0.00457501
0.0045614
0.00454904
0.00453797
0.00452821
0.0045198
0.00451277
0.00450717
0.00450292
0.00449961
0.00449595
0.00448958
1.68629e-05
0.000133726
0.000273189
0.00039521
0.000496773
0.000581089
0.000650808
0.000709086
0.000758591
0.000801516
0.000839617
0.000874294
0.000906645
0.000937443
0.00096724
0.000996586
0.00102587
0.00105534
0.00108518
0.00111551
0.00114644
0.00117806
0.00121031
0.00124318
0.00127664
0.00131066
0.00134521
0.00138024
0.00141571
0.00145159
0.00148783
0.0015244
0.00156127
0.00159841
0.0016358
0.00167349
0.00171144
0.00174961
0.00178786
0.00182616
0.00186453
0.00190295
0.00194144
0.00198002
0.0020187
0.00205749
0.00209639
0.00213542
0.00217458
0.00221388
0.00225333
0.00229293
0.0023327
0.00237263
0.00241274
0.00245303
0.00249351
0.00253417
0.00257503
0.00261609
0.00265734
0.0026988
0.00274046
0.00278231
0.00282436
0.00286661
0.00290904
0.00295166
0.00299446
0.00303742
0.00308054
0.00312382
0.00316723
0.00321078
0.00325443
0.00329818
0.00334202
0.00338592
0.00342987
0.00347385
0.00351785
0.00356184
0.00360581
0.00364973
0.00369359
0.00373737
0.00378104
0.00382459
0.003868
0.00391125
0.00395431
0.00399718
0.00403983
0.00408225
0.00412441
0.00416629
0.00420789
0.00424919
0.00429015
0.00433078
0.00437104
0.00441092
0.00445039
0.00448945
0.00452805
0.00456619
0.00460384
0.00464096
0.00467754
0.00471353
0.0047489
0.00478361
0.00481763
0.00485091
0.00488339
0.00491504
0.00494579
0.0049756
0.00500441
0.00503216
0.00505879
0.00508424
0.00510849
0.00513146
0.00515304
0.00517326
0.00519196
0.00520904
0.00522454
0.00523801
0.00524955
0.00525922
0.00526703
0.00527295
0.00527699
0.00527912
0.00527936
0.00527771
0.00527419
0.00526882
0.00526163
0.00525267
0.00524199
0.00522965
0.00521571
0.00520026
0.00518337
0.00516513
0.00514565
0.00512502
0.00510337
0.0050808
0.00505745
0.00503345
0.00500894
0.00498405
0.00495895
0.00493377
0.00490867
0.00488381
0.00485934
0.00483541
0.00481218
0.00478978
0.00476836
0.00474804
0.00472892
0.00471111
0.0046947
0.00467977
0.00466638
0.0046546
0.00464451
0.00463618
0.0046297
0.00462514
0.00462251
0.00462149
0.00462111
0.00461983
1.74218e-05
0.000135571
0.000277384
0.000402999
0.000508625
0.00059726
0.000671246
0.000733566
0.000786798
0.000833099
0.000874133
0.000911171
0.000945514
0.000978061
0.00100953
0.00104052
0.00107125
0.00110194
0.0011328
0.00116396
0.0011955
0.00122745
0.00125985
0.00129271
0.00132602
0.00135977
0.00139392
0.00142846
0.00146334
0.00149852
0.00153398
0.00156969
0.00160564
0.00164178
0.00167807
0.00171456
0.0017513
0.0017883
0.00182543
0.00186257
0.00189971
0.00193681
0.00197389
0.00201099
0.00204815
0.00208538
0.0021227
0.00216013
0.00219769
0.00223538
0.00227322
0.00231123
0.00234941
0.00238779
0.00242637
0.00246516
0.00250419
0.00254345
0.00258295
0.00262271
0.00266273
0.00270302
0.00274358