/*--------------------------------*- C++ -*----------------------------------*\
  =========                 |
  \\      /  F ield         | OpenFOAM: The Open Source CFD Toolbox
   \\    /   O peration     | Website:  https://openfoam.org
    \\  /    A nd           | Version:  11
     \\/     M anipulation  |
\*---------------------------------------------------------------------------*/
FoamFile
{
    format      ascii;
    class       volScalarField;
    location    "200";
    object      p;
}
// * * * * * * * * * * * * * * * * * * * * * * * * * * * * * * * * * * * * * //

dimensions      [0 2 -2 0 0 0 0];

internalField   nonuniform List<scalar> 
12225
(
-2.14637
-4.33494
-5.43491
-5.75552
-5.93676
-6.10577
-6.2373
-6.33245
-6.40906
-6.47646
-6.53647
-6.59135
-6.64114
-6.68749
-6.73064
-6.76591
-6.80942
-6.77642
-5.3098
-6.07824
-6.23866
-6.14638
-6.13381
-6.20165
-6.27918
-6.34491
-6.40453
-6.46198
-6.5166
-6.56752
-6.61541
-6.66046
-6.70361
-6.74108
-6.78439
-6.81166
-5.71094
-5.69593
-5.82324
-5.90156
-5.99642
-6.11657
-6.22377
-6.30861
-6.38043
-6.44578
-6.50591
-6.56083
-6.612
-6.65969
-6.70541
-6.74681
-6.79403
-6.83477
-5.589
-5.53209
-5.77365
-5.93192
-6.03362
-6.13979
-6.23746
-6.31749
-6.38622
-6.44931
-6.50789
-6.56193
-6.61257
-6.66015
-6.70608
-6.74955
-6.79689
-6.84416
-5.57866
-5.60309
-5.83111
-5.97262
-6.0562
-6.14822
-6.23941
-6.31711
-6.38464
-6.44686
-6.50499
-6.55899
-6.60981
-6.65794
-6.70463
-6.74996
-6.7978
-6.84794
-5.63662
-5.68556
-5.85979
-5.98365
-6.06512
-6.15291
-6.24092
-6.3174
-6.38436
-6.44605
-6.50384
-6.55779
-6.60871
-6.6572
-6.70438
-6.75072
-6.79868
-6.84899
-5.69695
-5.74119
-5.87633
-5.9926
-6.0763
-6.1604
-6.24428
-6.31889
-6.38495
-6.44594
-6.50321
-6.55695
-6.60783
-6.6565
-6.70389
-6.75065
-6.79831
-6.84755
-5.75047
-5.78811
-5.89803
-6.00627
-6.08922
-6.16878
-6.24815
-6.32059
-6.38561
-6.44581
-6.50248
-6.55592
-6.60666
-6.65534
-6.70274
-6.74946
-6.79647
-6.84413
-5.80019
-5.83332
-5.9242
-6.0221
-6.10213
-6.17745
-6.25257
-6.32264
-6.38641
-6.44568
-6.50164
-6.55464
-6.60511
-6.65361
-6.70076
-6.74708
-6.79314
-6.83903
-5.84722
-5.87647
-5.95194
-6.0391
-6.11525
-6.18674
-6.2578
-6.32525
-6.38752
-6.4457
-6.50079
-6.55318
-6.6032
-6.6513
-6.69797
-6.74359
-6.7885
-6.8326
-5.89151
-5.91699
-5.98014
-6.05726
-6.12889
-6.19665
-6.26382
-6.32846
-6.38899
-6.44591
-6.5
-6.5516
-6.60098
-6.64847
-6.69445
-6.73915
-6.7828
-6.82515
-5.9295
-5.95183
-6.00599
-6.07476
-6.14182
-6.20615
-6.26992
-6.33191
-6.39067
-6.44631
-6.49934
-6.55008
-6.59871
-6.64548
-6.69065
-6.73439
-6.77681
-6.81765
-5.96458
-5.98428
-6.03107
-6.09239
-6.15483
-6.21577
-6.27631
-6.33568
-6.39259
-6.44684
-6.49874
-6.5485
-6.59628
-6.64222
-6.68649
-6.7292
-6.7704
-6.80982
-6.00133
-6.01851
-6.05848
-6.11244
-6.16971
-6.22682
-6.28388
-6.34031
-6.39503
-6.44759
-6.49809
-6.54663
-6.5933
-6.63816
-6.68131
-6.72279
-6.7626
-6.80055
-6.03849
-6.05326
-6.08722
-6.13427
-6.1861
-6.23903
-6.29243
-6.3457
-6.39791
-6.44848
-6.49729
-6.54435
-6.58964
-6.63319
-6.67499
-6.71505
-6.75338
-6.78979
-6.0741
-6.08672
-6.11562
-6.15654
-6.20307
-6.25173
-6.30143
-6.35145
-6.40094
-6.44928
-6.49617
-6.54149
-6.58519
-6.62718
-6.66746
-6.70598
-6.74275
-6.77763
-6.10526
-6.11613
-6.14106
-6.17698
-6.21883
-6.26353
-6.30975
-6.35666
-6.40344
-6.44945
-6.49429
-6.53775
-6.57969
-6.62002
-6.65867
-6.6956
-6.7308
-6.7642
-6.12761
-6.13725
-6.1595
-6.19195
-6.23038
-6.27201
-6.31544
-6.35978
-6.40424
-6.44814
-6.49106
-6.53272
-6.57295
-6.61163
-6.6487
-6.6841
-6.71781
-6.74983
-6.13425
-6.1434
-6.16461
-6.19576
-6.23284
-6.27312
-6.31516
-6.3581
-6.40116
-6.44369
-6.48523
-6.52552
-6.56439
-6.60173
-6.63747
-6.67159
-6.70407
-6.73495
-6.11801
-6.12778
-6.15038
-6.18346
-6.22246
-6.26415
-6.30711
-6.35062
-6.39399
-6.43656
-6.4779
-6.51783
-6.55619
-6.59294
-6.62802
-6.66144
-6.69321
-6.72339
-6.09108
-6.10188
-6.12715
-6.16417
-6.20694
-6.25146
-6.29654
-6.34177
-6.3864
-6.42975
-6.47152
-6.51162
-6.55001
-6.58662
-6.62148
-6.65461
-6.68606
-6.71589
-6.05582
-6.06763
-6.09699
-6.14058
-6.18886
-6.23684
-6.28465
-6.33237
-6.37893
-6.42351
-6.46604
-6.5066
-6.54522
-6.5819
-6.6167
-6.64969
-6.68094
-6.71057
-6.01524
-6.02713
-6.06159
-6.11486
-6.17041
-6.22237
-6.27326
-6.3237
-6.37222
-6.41809
-6.46152
-6.50271
-6.5417
-6.57857
-6.61341
-6.64637
-6.67754
-6.70707
-5.97151
-5.98249
-6.02426
-6.08869
-6.15087
-6.20755
-6.26317
-6.31703
-6.3673
-6.41412
-6.45824
-6.49992
-6.53919
-6.57615
-6.61099
-6.6439
-6.67498
-6.70439
-5.92456
-5.93007
-5.99274
-6.07095
-6.13289
-6.19115
-6.25229
-6.31065
-6.36317
-6.41123
-6.45625
-6.49851
-6.53805
-6.57509
-6.60991
-6.64274
-6.67374
-6.70309
-5.88125
-5.84492
-5.95446
-6.06544
-6.12769
-6.18298
-6.24519
-6.30494
-6.35816
-6.40688
-6.4526
-6.4954
-6.53527
-6.57251
-6.60743
-6.64031
-6.67133
-6.70069
-5.89547
-5.73652
-5.86544
-6.01953
-6.10964
-6.18101
-6.24994
-6.31085
-6.36365
-6.41193
-6.45722
-6.49948
-6.53877
-6.57544
-6.60981
-6.64219
-6.6728
-6.70188
-6.01866
-5.83828
-5.85245
-5.92459
-6.01296
-6.11219
-6.20288
-6.27666
-6.33837
-6.39351
-6.44382
-6.48959
-6.5314
-6.56989
-6.60559
-6.63892
-6.67036
-6.70051
-5.72603
-6.31713
-6.40596
-6.28171
-6.22738
-6.25454
-6.30153
-6.34477
-6.38633
-6.42852
-6.47001
-6.50934
-6.54631
-6.58104
-6.6136
-6.64416
-6.67291
-6.70164
-2.73671
-4.50001
-5.50471
-5.80386
-5.95303
-6.09666
-6.2107
-6.29167
-6.3559
-6.41276
-6.46403
-6.51007
-6.55175
-6.58998
-6.62527
-6.65742
-6.68627
-6.71006
-7.60863
-7.60868
-7.6092
-7.61032
-7.6119
-7.6139
-7.61629
-7.61907
-7.62224
-7.62584
-7.6299
-7.63445
-7.63953
-7.6452
-7.65152
-7.65853
-7.6663
-7.67485
-7.68425
-7.69465
-7.70601
-7.71809
-7.73072
-7.74407
-7.75761
-7.77027
-7.78292
-7.79854
-7.81801
-7.83937
-7.86145
-7.88403
-7.90684
-7.93112
-7.95541
-7.97722
-7.99726
-8.01909
-8.0436
-8.069
-8.09525
-8.12215
-8.14956
-8.17738
-8.20548
-8.2338
-8.26222
-8.29069
-8.31911
-8.34741
-8.37549
-8.4033
-8.43071
-8.45765
-8.484
-8.50969
-8.53458
-8.55857
-8.58152
-8.60332
-8.62382
-8.6429
-8.66036
-8.6761
-8.68992
-8.70167
-8.71115
-8.71822
-8.72263
-8.72425
-8.72281
-8.71817
-8.71007
-8.69834
-8.68272
-8.66303
-8.63901
-8.61047
-8.57714
-8.53884
-8.4953
-8.44633
-8.39168
-8.33117
-8.26454
-8.19161
-8.11215
-8.02599
-7.93294
-7.83296
-7.72604
-7.61219
-7.49122
-7.36262
-7.22598
-7.08134
-6.9288
-6.7684
-6.60017
-6.42414
-6.24035
-6.04885
-5.84974
-5.64314
-5.42921
-5.20813
-4.98011
-4.7454
-4.50427
-4.25702
-4.00399
-3.74551
-3.48198
-3.21379
-2.94137
-2.66517
-2.38566
-2.1033
-1.81857
-1.53192
-1.24383
-0.954813
-0.665366
-0.375997
-0.0871831
0.200639
0.487037
0.771583
1.05388
1.33354
1.61023
1.88359
2.15336
2.41925
2.68107
2.93861
3.19175
3.44038
3.68449
3.924
4.15889
4.38919
4.61499
4.83642
5.05364
5.26686
5.47627
5.68213
5.88473
6.08437
6.28138
6.47611
6.66895
6.86028
7.05053
7.24013
7.42953
7.6192
7.80959
8.00118
8.19442
8.38978
8.58768
8.78851
8.99269
9.20067
9.4126
9.62819
9.84718
10.0697
10.2957
10.5251
10.7573
10.9919
11.2283
11.4658
11.7046
11.9442
12.1971
12.4527
-7.60635
-7.6069
-7.60771
-7.6086
-7.60943
-7.61032
-7.61151
-7.61315
-7.61529
-7.61795
-7.62117
-7.62493
-7.62926
-7.63418
-7.6397
-7.64586
-7.65267
-7.66013
-7.66828
-7.67705
-7.68626
-7.69593
-7.70646
-7.71782
-7.72961
-7.74283
-7.75917
-7.777
-7.79335
-7.80875
-7.82461
-7.8415
-7.86096
-7.88245
-7.90567
-7.93212
-7.96197
-7.9917
-8.01892
-8.04578
-8.07273
-8.09995
-8.12743
-8.15518
-8.18313
-8.21125
-8.23944
-8.26767
-8.29584
-8.3239
-8.35176
-8.37935
-8.40656
-8.43333
-8.45954
-8.48511
-8.50992
-8.53385
-8.55679
-8.57862
-8.59918
-8.61835
-8.63597
-8.6519
-8.66596
-8.678
-8.68783
-8.69528
-8.70014
-8.70225
-8.70138
-8.69735
-8.68993
-8.67893
-8.66412
-8.64529
-8.62221
-8.59466
-8.56241
-8.52525
-8.48293
-8.43526
-8.382
-8.32296
-8.2579
-8.18664
-8.10897
-8.02468
-7.9336
-7.83557
-7.73045
-7.61799
-7.49795
-7.37029
-7.23513
-7.09238
-6.94192
-6.78367
-6.61764
-6.44381
-6.26223
-6.07296
-5.87607
-5.67168
-5.45994
-5.24102
-5.01513
-4.78249
-4.54338
-4.29808
-4.04692
-3.79023
-3.5284
-3.26181
-2.99088
-2.71605
-2.43779
-2.15655
-1.87281
-1.58702
-1.29967
-1.01125
-0.722275
-0.433225
-0.144596
0.143177
0.429655
0.714418
0.997055
1.27719
1.55445
1.82852
2.09909
2.36589
2.62869
2.8873
3.14156
3.3914
3.63673
3.87751
4.11368
4.34526
4.57233
4.79503
5.01348
5.22789
5.43844
5.64539
5.84901
6.04959
6.24744
6.44294
6.63643
6.82832
7.019
7.20891
7.3985
7.58821
7.77851
7.96986
8.16272
8.35756
8.55485
8.75496
8.95823
9.16506
9.37557
9.58955
9.80692
10.0278
10.2522
10.48
10.7108
10.9441
11.1795
11.4164
11.6556
11.8961
12.1523
12.4005
-7.60029
-7.60195
-7.60428
-7.60606
-7.60714
-7.60797
-7.60892
-7.61021
-7.61196
-7.61423
-7.61706
-7.62045
-7.62443
-7.62901
-7.63422
-7.64007
-7.64657
-7.65374
-7.66157
-7.67006
-7.67913
-7.68875
-7.69903
-7.71015
-7.72229
-7.73606
-7.75196
-7.76943
-7.78724
-7.8051
-7.82331
-7.84201
-7.86138
-7.88135
-7.90218
-7.92492
-7.94975
-7.97567
-8.00165
-8.02785
-8.05433
-8.08109
-8.1081
-8.13534
-8.16276
-8.19033
-8.21797
-8.24565
-8.27329
-8.30083
-8.32819
-8.3553
-8.38207
-8.40842
-8.43426
-8.45948
-8.48397
-8.50764
-8.53035
-8.55199
-8.57242
-8.5915
-8.60909
-8.62503
-8.63916
-8.65133
-8.66135
-8.66904
-8.67422
-8.67671
-8.67629
-8.67277
-8.66595
-8.65561
-8.64154
-8.62353
-8.60135
-8.57478
-8.54359
-8.50758
-8.4665
-8.42014
-8.36829
-8.31073
-8.24726
-8.17766
-8.10174
-8.01931
-7.93019
-7.83422
-7.73122
-7.62097
-7.50322
-7.37791
-7.24508
-7.10468
-6.95664
-6.80088
-6.63739
-6.46614
-6.28716
-6.1005
-5.90623
-5.70446
-5.49533
-5.279
-5.05566
-4.82555
-4.5889
-4.34601
-4.09717
-3.84274
-3.58306
-3.31853
-3.04955
-2.77655
-2.49999
-2.22033
-1.93802
-1.65352
-1.36732
-1.07992
-0.791822
-0.503481
-0.215392
0.0719806
0.358202
0.642861
0.925543
1.20587
1.48346
1.758
2.02916
2.29667
2.56028
2.8198
3.07506
3.32596
3.57242
3.81435
4.05172
4.28452
4.51282
4.73672
4.95637
5.17192
5.38357
5.59154
5.7961
5.99752
6.19612
6.39223
6.58621
6.77843
6.96931
7.15924
7.34867
7.53803
7.7278
7.91844
8.11039
8.3041
8.50007
8.69875
8.90047
9.10557
9.3142
9.52629
9.74186
9.96098
10.1837
10.4098
10.639
10.8711
11.1056
11.3423
11.5822
11.8237
12.0826
12.3168
-7.59114
-7.59405
-7.59849
-7.60189
-7.60402
-7.60553
-7.60687
-7.60831
-7.61004
-7.61219
-7.61482
-7.61798
-7.6217
-7.62601
-7.63093
-7.63647
-7.64264
-7.64948
-7.65698
-7.66516
-7.67402
-7.68359
-7.6939
-7.70505
-7.71717
-7.73052
-7.74531
-7.76146
-7.77864
-7.79672
-7.81565
-7.8354
-7.85584
-7.87683
-7.89837
-7.92078
-7.94418
-7.96843
-7.99326
-8.01858
-8.04433
-8.07046
-8.0969
-8.1236
-8.1505
-8.17757
-8.20474
-8.23196
-8.25917
-8.2863
-8.31327
-8.34003
-8.36648
-8.39254
-8.41811
-8.44311
-8.46743
-8.49095
-8.51356
-8.53513
-8.55554
-8.57465
-8.5923
-8.60836
-8.62266
-8.63504
-8.64531
-8.65332
-8.65887
-8.66177
-8.66182
-8.65883
-8.65259
-8.64289
-8.62952
-8.61226
-8.59089
-8.56519
-8.53493
-8.49991
-8.45988
-8.41464
-8.36395
-8.30762
-8.24542
-8.17714
-8.1026
-8.0216
-7.93393
-7.83945
-7.73797
-7.62931
-7.51328
-7.38978
-7.25879
-7.12024
-6.97407
-6.82022
-6.65864
-6.48934
-6.31231
-6.12761
-5.93531
-5.7355
-5.52831
-5.3139
-5.09246
-4.86421
-4.62938
-4.38825
-4.14112
-3.88832
-3.63021
-3.36717
-3.0996
-2.82792
-2.55258
-2.27403
-1.99272
-1.70912
-1.42372
-1.13701
-0.849503
-0.561641
-0.273889
0.0132611
0.29937
0.584027
0.866827
1.14738
1.42531
1.70029
1.97199
2.24014
2.50447
2.7648
3.02094
3.27277
3.52021
3.76315
4.00156
4.23544
4.46484
4.68984
4.91058
5.12718
5.33987
5.54882
5.75432
5.9566
6.15599
6.35279
6.54737
6.74006
6.93128
7.12142
7.31092
7.50018
7.68965
7.8798
8.0711
8.26398
8.45888
8.65621
8.8563
9.0595
9.26603
9.47598
9.68942
9.90645
10.1271
10.3511
10.5785
10.8088
11.0418
11.2773
11.5164
11.7567
12.0131
12.2328
-7.5813
-7.58551
-7.5922
-7.59745
-7.6009
-7.60339
-7.60546
-7.60743
-7.6095
-7.61185
-7.6146
-7.61783
-7.62158
-7.62591
-7.63082
-7.63636
-7.64255
-7.64939
-7.65692
-7.66516
-7.67414
-7.68389
-7.69447
-7.70596
-7.71842
-7.73194
-7.74659
-7.76235
-7.77912
-7.79684
-7.8155
-7.83507
-7.85546
-7.87658
-7.89837
-7.92084
-7.94397
-7.96771
-7.99198
-8.01674
-8.04194
-8.06753
-8.09346
-8.11968
-8.14613
-8.17278
-8.19955
-8.22639
-8.25324
-8.28004
-8.30672
-8.33321
-8.35941
-8.38526
-8.41065
-8.43551
-8.4597
-8.48314
-8.50571
-8.52727
-8.5477
-8.56687
-8.58463
-8.60082
-8.6153
-8.62788
-8.63842
-8.64671
-8.65259
-8.65586
-8.65633
-8.65379
-8.64804
-8.63888
-8.62609
-8.60945
-8.58874
-8.56374
-8.53423
-8.49999
-8.46079
-8.41641
-8.36664
-8.31124
-8.25002
-8.18276
-8.10925
-8.02931
-7.94274
-7.84937
-7.74903
-7.64156
-7.52678
-7.40459
-7.27491
-7.13768
-6.99281
-6.84026
-6.67999
-6.51198
-6.33625
-6.15283
-5.96179
-5.76323
-5.55727
-5.34406
-5.12379
-4.89666
-4.66292
-4.42283
-4.17669
-3.92483
-3.6676
-3.40538
-3.13856
-2.86757
-2.59286
-2.31485
-2.03402
-1.75083
-1.46577
-1.17935
-0.892056
-0.604353
-0.316681
-0.0295334
0.256643
0.541429
0.824431
1.10524
1.3835
1.65885
1.93098
2.19959
2.46445
2.72533
2.98206
3.23451
3.48257
3.72615
3.96518
4.1997
4.42973
4.65538
4.87672
5.09393
5.30716
5.51666
5.72263
5.92536
6.12511
6.32224
6.51705
6.70993
6.90123
7.09135
7.2807
7.46974
7.65885
7.84852
8.03915
8.23121
8.42509
8.62123
8.81994
9.02158
9.22638
9.43453
9.64616
9.86139
10.0802
10.3026
10.5283
10.757
10.9887
11.2228
11.4603
11.6981
11.9499
12.1564
-7.57274
-7.57814
-7.5868
-7.59374
-7.59851
-7.60208
-7.60504
-7.6077
-7.61032
-7.61311
-7.61621
-7.61973
-7.62373
-7.62828
-7.63341
-7.63918
-7.64559
-7.65269
-7.66049
-7.66902
-7.67832
-7.68842
-7.69937
-7.71122
-7.72403
-7.73784
-7.75266
-7.76847
-7.78521
-7.80284
-7.82133
-7.84063
-7.86071
-7.88154
-7.90305
-7.92522
-7.94801
-7.97137
-7.99523
-8.01957
-8.04435
-8.06952
-8.09504
-8.12087
-8.14696
-8.17325
-8.1997
-8.22625
-8.25283
-8.27939
-8.30586
-8.33215
-8.3582
-8.38392
-8.40922
-8.434
-8.45816
-8.48159
-8.50418
-8.52579
-8.54631
-8.5656
-8.5835
-8.59987
-8.61455
-8.62738
-8.63818
-8.64677
-8.65298
-8.65661
-8.65747
-8.65535
-8.65005
-8.64137
-8.62908
-8.61297
-8.59282
-8.56842
-8.53953
-8.50593
-8.4674
-8.42371
-8.37465
-8.31999
-8.25953
-8.19304
-8.12034
-8.0412
-7.95546
-7.86292
-7.76344
-7.65683
-7.54295
-7.42167
-7.2929
-7.15656
-7.01258
-6.8609
-6.70148
-6.5343
-6.35938
-6.17676
-5.98649
-5.78867
-5.58341
-5.37088
-5.15125
-4.92472
-4.69153
-4.45196
-4.20629
-3.95485
-3.69799
-3.43609
-3.16955
-2.89879
-2.62425
-2.34637
-2.06562
-1.78247
-1.49741
-1.21095
-0.923589
-0.635792
-0.348
-0.0606827
0.225697
0.510724
0.793987
1.07509
1.35366
1.62934
1.90181
2.17077
2.43597
2.69721
2.95429
3.20709
3.45546
3.69932
3.93863
4.17339
4.40365
4.62948
4.85098
5.06831
5.28161
5.49112
5.69707
5.89973
6.09936
6.29628
6.49083
6.68337
6.87427
7.06392
7.25272
7.44111
7.6295
7.81835
8.00808
8.19913
8.39193
8.58688
8.78433
8.98461
9.18799
9.39467
9.60486
9.81869
10.0362
10.2572
10.4817
10.7093
10.9398
11.1727
11.4087
11.6438
11.8911
12.0862
-7.56683
-7.57322
-7.58335
-7.59166
-7.5976
-7.6022
-7.60603
-7.60944
-7.61271
-7.61604
-7.61961
-7.62355
-7.62793
-7.63283
-7.63831
-7.64441
-7.65116
-7.6586
-7.66676
-7.67567
-7.68534
-7.69582
-7.70713
-7.71932
-7.7324
-7.74641
-7.76135
-7.77721
-7.79394
-7.81152
-7.8299
-7.84905
-7.86893
-7.88951
-7.91076
-7.93264
-7.95512
-7.97815
-8.00169
-8.0257
-8.05015
-8.07501
-8.10023
-8.12577
-8.15158
-8.17763
-8.20385
-8.23019
-8.2566
-8.283
-8.30934
-8.33554
-8.36152
-8.3872
-8.41249
-8.43728
-8.46148
-8.48499
-8.50767
-8.5294
-8.55007
-8.56952
-8.58762
-8.60421
-8.61913
-8.63222
-8.64331
-8.65221
-8.65875
-8.66273
-8.66395
-8.66222
-8.65733
-8.64907
-8.63722
-8.62157
-8.6019
-8.57798
-8.5496
-8.51652
-8.47851
-8.43537
-8.38686
-8.33277
-8.27288
-8.20697
-8.13485
-8.05631
-7.97115
-7.87921
-7.78032
-7.6743
-7.56102
-7.44034
-7.31217
-7.1764
-7.03297
-6.88181
-6.72289
-6.55618
-6.38171
-6.1995
-6.00962
-5.81215
-5.60722
-5.39498
-5.17559
-4.94927
-4.71625
-4.4768
-4.23121
-3.97982
-3.72296
-3.46103
-3.19442
-2.92355
-2.64886
-2.3708
-2.08984
-1.80646
-1.52117
-1.23445
-0.946815
-0.658744
-0.370684
-0.0830813
0.2036
0.488941
0.772518
1.05394
1.33282
1.60881
1.88155
2.15079
2.41625
2.67771
2.935
3.18795
3.43645
3.68039
3.91974
4.15449
4.3847
4.61042
4.83179
5.0489
5.26197
5.47115
5.67673
5.87892
6.07804
6.27437
6.46829
6.6601
6.85021
7.03898
7.22686
7.41423
7.60157
7.78928
7.97783
8.16765
8.35918
8.55281
8.74893
8.94786
9.14988
9.35525
9.56418
9.77681
9.99319
10.2132
10.4368
10.6635
10.8931
11.125
11.3594
11.5921
11.8353
12.021
-7.56433
-7.57139
-7.58249
-7.59178
-7.59865
-7.60411
-7.60873
-7.61284
-7.61674
-7.62064
-7.62472
-7.62912
-7.63393
-7.63924
-7.64511
-7.65158
-7.65871
-7.66651
-7.67503
-7.6843
-7.69432
-7.70514
-7.71677
-7.72923
-7.74254
-7.75671
-7.77173
-7.78761
-7.80431
-7.82182
-7.84009
-7.8591
-7.87882
-7.89922
-7.92026
-7.94192
-7.96416
-7.98696
-8.01026
-8.03404
-8.05826
-8.0829
-8.10792
-8.13327
-8.15891
-8.18481
-8.2109
-8.23714
-8.26347
-8.28982
-8.31613
-8.34233
-8.36833
-8.39405
-8.41941
-8.4443
-8.46861
-8.49225
-8.51509
-8.537
-8.55787
-8.57754
-8.59586
-8.61271
-8.62789
-8.64126
-8.65264
-8.66186
-8.66871
-8.67302
-8.67459
-8.67321
-8.66868
-8.66079
-8.64931
-8.63405
-8.61477
-8.59124
-8.56325
-8.53057
-8.49298
-8.45024
-8.40214
-8.34845
-8.28897
-8.22346
-8.15174
-8.0736
-7.98883
-7.89726
-7.79874
-7.6931
-7.58016
-7.45983
-7.33197
-7.1965
-7.05333
-6.90242
-6.74371
-6.57719
-6.40286
-6.22077
-6.03097
-5.83356
-5.62864
-5.41637
-5.19692
-4.9705
-4.73735
-4.49773
-4.25193
-4.00029
-3.74316
-3.48093
-3.21398
-2.94276
-2.66768
-2.38923
-2.10786
-1.82407
-1.53836
-1.25124
-0.963203
-0.674743
-0.386322
-0.0983732
0.18866
0.474338
0.758248
1.03998
1.31914
1.59538
1.86836
2.13779
2.40341
2.665
2.92236
3.17533
3.4238
3.66766
3.9069
4.14149
4.37148
4.59692
4.81794
5.03465
5.24724
5.45589
5.66087
5.86239
6.06077
6.25629
6.44932
6.64017
6.82926
7.01694
7.20366
7.38983
7.57589
7.76228
7.94947
8.13789
8.32799
8.52019
8.71488
8.9124
9.11306
9.31714
9.52486
9.73639
9.95175
10.1709
10.3936
10.6196
10.8484
11.0793
11.3123
11.5426
11.7825
11.9607
-7.56547
-7.57288
-7.58444
-7.5943
-7.60182
-7.60792
-7.61318
-7.61789
-7.62234
-7.62675
-7.63131
-7.63615
-7.64138
-7.64708
-7.65331
-7.66014
-7.66761
-7.67574
-7.68458
-7.69414
-7.70445
-7.71554
-7.7274
-7.74007
-7.75354
-7.76783
-7.78292
-7.79882
-7.81549
-7.83293
-7.85111
-7.87
-7.88959
-7.90984
-7.93073
-7.95223
-7.97431
-7.99694
-8.02009
-8.04373
-8.06782
-8.09233
-8.11724
-8.1425
-8.16807
-8.19392
-8.21998
-8.24621
-8.27255
-8.29894
-8.32531
-8.35158
-8.37768
-8.40353
-8.42902
-8.45407
-8.47856
-8.50239
-8.52544
-8.54758
-8.56867
-8.58859
-8.60718
-8.62428
-8.63975
-8.6534
-8.66507
-8.67457
-8.68172
-8.68633
-8.6882
-8.68713
-8.6829
-8.67531
-8.66415
-8.64918
-8.6302
-8.60698
-8.57928
-8.54689
-8.50958
-8.46712
-8.41929
-8.36587
-8.30663
-8.24138
-8.16989
-8.09196
-8.0074
-7.91603
-7.81768
-7.7122
-7.59941
-7.4792
-7.35143
-7.21604
-7.07291
-6.92201
-6.76327
-6.59669
-6.42227
-6.24006
-6.0501
-5.85249
-5.64734
-5.43481
-5.21506
-4.9883
-4.75477
-4.51474
-4.26852
-4.01641
-3.7588
-3.49605
-3.22859
-2.95682
-2.6812
-2.40218
-2.12027
-1.83595
-1.54973
-1.26211
-0.973596
-0.684689
-0.39587
-0.107555
0.179826
0.465826
0.750038
1.03203
1.31142
1.58783
1.86094
2.13046
2.39614
2.65773
2.91503
3.16789
3.41617
3.65982
3.89875
4.13301
4.36258
4.58757
4.80805
5.02418
5.23609
5.44403
5.6482
5.84888
6.04633
6.24088
6.43285
6.62261
6.81052
6.997
7.18244
7.36728
7.55197
7.73696
7.9227
8.10967
8.29829
8.48903
8.68227
8.8784
9.07774
9.28058
9.48717
9.69766
9.91212
10.1305
10.3525
10.5777
10.8059
11.0359
11.2675
11.4957
11.7328
11.9051
-7.57008
-7.57756
-7.5891
-7.59916
-7.60702
-7.61355
-7.61924
-7.6244
-7.62929
-7.63412
-7.63906
-7.64427
-7.64984
-7.65586
-7.6624
-7.66952
-7.67725
-7.68565
-7.69473
-7.70452
-7.71503
-7.7263
-7.73833
-7.75113
-7.76471
-7.77906
-7.79419
-7.81009
-7.82674
-7.84413
-7.86224
-7.88105
-7.90054
-7.9207
-7.94149
-7.9629
-7.98488
-8.00743
-8.0305
-8.05408
-8.07812
-8.1026
-8.12749
-8.15275
-8.17834
-8.20422
-8.23034
-8.25665
-8.28308
-8.30958
-8.33608
-8.36251
-8.38877
-8.4148
-8.44049
-8.46574
-8.49046
-8.51452
-8.5378
-8.56019
-8.58153
-8.60171
-8.62055
-8.63792
-8.65364
-8.66756
-8.67948
-8.68924
-8.69665
-8.70151
-8.70362
-8.70279
-8.69879
-8.69143
-8.68048
-8.66573
-8.64695
-8.62391
-8.5964
-8.56419
-8.52704
-8.48473
-8.43704
-8.38374
-8.32462
-8.25946
-8.18805
-8.11019
-8.02568
-7.93433
-7.836
-7.73051
-7.61769
-7.49741
-7.36957
-7.23405
-7.09078
-6.93969
-6.78074
-6.61392
-6.43922
-6.25669
-6.06638
-5.86838
-5.66281
-5.44982
-5.22958
-5.0023
-4.76823
-4.52763
-4.2808
-4.02808
-3.76982
-3.50643
-3.2383
-2.96586
-2.68958
-2.40991
-2.12737
-1.84245
-1.55566
-1.2675
-0.978484
-0.689123
-0.3999
-0.111229
0.176457
0.462735
0.747192
1.0294
1.30894
1.58545
1.8586
2.12811
2.39371
2.65517
2.91227
3.16485
3.4128
3.65604
3.89452
4.12823
4.35721
4.58153
4.80127
5.0166
5.22767
5.4347
5.6379
5.83755
6.03393
6.22735
6.41815
6.60668
6.79332
6.97847
7.16256
7.34601
7.52927
7.7128
7.89708
8.08257
8.26973
8.45901
8.65085
8.84562
9.0437
9.24537
9.45091
9.66047
9.87412
10.0917
10.3131
10.5378
10.7653
10.9944
11.2249
11.4512
11.686
11.8539
-7.57776
-7.58503
-7.59618
-7.60608
-7.61401
-7.62071
-7.62665
-7.63208
-7.63725
-7.64236
-7.64757
-7.65304
-7.65885
-7.66511
-7.67186
-7.67918
-7.6871
-7.69566
-7.70489
-7.71482
-7.72546
-7.73683
-7.74895
-7.76182
-7.77544
-7.78982
-7.80496
-7.82085
-7.83748
-7.85483
-7.8729
-7.89167
-7.91111
-7.93122
-7.95197
-7.97334
-7.99531
-8.01784
-8.04091
-8.0645
-8.08857
-8.1131
-8.13805
-8.16339
-8.18908
-8.21508
-8.24132
-8.26777
-8.29437
-8.32104
-8.34773
-8.37435
-8.40083
-8.42708
-8.45299
-8.47848
-8.50343
-8.52773
-8.55126
-8.57388
-8.59547
-8.61587
-8.63495
-8.65254
-8.66848
-8.6826
-8.69473
-8.70468
-8.71227
-8.7173
-8.71958
-8.71889
-8.71504
-8.7078
-8.69697
-8.68232
-8.66363
-8.64067
-8.61322
-8.58106
-8.54395
-8.50166
-8.45398
-8.40068
-8.34154
-8.27634
-8.20488
-8.12695
-8.04234
-7.95089
-7.85242
-7.74677
-7.63377
-7.51328
-7.38521
-7.24943
-7.10586
-6.95444
-6.79513
-6.62791
-6.45279
-6.2698
-6.079
-5.88048
-5.67435
-5.46077
-5.23991
-5.012
-4.77725
-4.53596
-4.28842
-4.03498
-3.776
-3.51187
-3.24299
-2.96983
-2.69282
-2.41246
-2.12926
-1.84372
-1.55634
-1.26764
-0.978124
-0.688322
-0.398703
-0.109701
0.178254
0.464751
0.749381
1.03172
1.31131
1.58782
1.8609
2.13026
2.39564
2.65679
2.91351
3.16563
3.41306
3.65568
3.8935
4.12647
4.35465
4.57809
4.79692
5.01125
5.22129
5.42721
5.62928
5.82774
6.0229
6.21504
6.40454
6.59172
6.77699
6.96073
7.14339
7.32539
7.5072
7.68926
7.87208
8.05611
8.24184
8.42973
8.62023
8.81375
9.01066
9.21128
9.41589
9.62465
9.8376
10.0547
10.2755
10.4997
10.7267
10.9551
11.1845
11.4092
11.6421
11.8067
-7.58792
-7.59477
-7.60523
-7.61467
-7.6224
-7.62905
-7.63502
-7.64054
-7.64582
-7.65107
-7.65642
-7.66202
-7.66795
-7.67432
-7.68118
-7.68858
-7.69658
-7.70521
-7.7145
-7.72448
-7.73516
-7.74657
-7.75871
-7.7716
-7.78524
-7.79962
-7.81476
-7.83064
-7.84725
-7.8646
-7.88265
-7.90141
-7.92085
-7.94096
-7.96172
-7.98311
-8.0051
-8.02768
-8.05081
-8.07449
-8.09866
-8.1233
-8.14839
-8.17387
-8.19972
-8.22588
-8.25231
-8.27895
-8.30574
-8.33262
-8.35952
-8.38637
-8.41306
-8.43953
-8.46567
-8.49138
-8.51655
-8.54106
-8.56479
-8.58761
-8.60938
-8.62996
-8.6492
-8.66694
-8.68301
-8.69726
-8.70949
-8.71954
-8.7272
-8.7323
-8.73462
-8.73398
-8.73014
-8.72292
-8.71208
-8.69741
-8.67868
-8.65568
-8.62817
-8.59593
-8.55873
-8.51635
-8.46855
-8.41512
-8.35583
-8.29048
-8.21884
-8.14071
-8.0559
-7.96421
-7.86549
-7.75957
-7.64627
-7.52548
-7.39705
-7.2609
-7.11693
-6.96508
-6.8053
-6.63759
-6.46195
-6.2784
-6.08702
-5.88789
-5.68112
-5.46687
-5.24533
-5.0167
-4.78122
-4.53919
-4.2909
-4.0367
-3.77695
-3.51204
-3.24241
-2.96848
-2.69074
-2.40969
-2.12582
-1.83965
-1.55169
-1.26245
-0.972471
-0.682257
-0.392281
-0.103006
0.185138
0.471748
0.756436
1.03876
1.31828
1.59463
1.86748
2.13652
2.40149
2.66215
2.91829
3.16977
3.41647
3.65831
3.89526
4.12731
4.35449
4.57688
4.79459
5.00776
5.21658
5.42125
5.62202
5.81915
6.01293
6.20368
6.39175
6.57749
6.76129
6.94357
7.12474
7.30525
7.48556
7.66616
7.84751
8.03012
8.21446
8.40103
8.59026
8.78262
8.97846
9.17815
9.38194
9.59001
9.8024
10.019
10.2394
10.4633
10.6898
10.9176
11.1461
11.3694
11.6008
11.7632
-7.59991
-7.60619
-7.61572
-7.62448
-7.63179
-7.63818
-7.64398
-7.64939
-7.65462
-7.65983
-7.66516
-7.67074
-7.67666
-7.68301
-7.68985
-7.69723
-7.70521
-7.71382
-7.72308
-7.73304
-7.74371
-7.7551
-7.76723
-7.7801
-7.79372
-7.8081
-7.82323
-7.83911
-7.85572
-7.87308
-7.89114
-7.90992
-7.92938
-7.94952
-7.97032
-7.99176
-8.01382
-8.0365
-8.05975
-8.08355
-8.10788
-8.13269
-8.15795
-8.18362
-8.20965
-8.236
-8.26262
-8.28946
-8.31645
-8.34353
-8.37062
-8.39766
-8.42454
-8.45119
-8.4775
-8.50337
-8.52868
-8.55332
-8.57716
-8.60008
-8.62194
-8.64258
-8.66187
-8.67963
-8.69572
-8.70996
-8.72217
-8.73218
-8.73979
-8.74481
-8.74705
-8.7463
-8.74235
-8.735
-8.72402
-8.70919
-8.6903
-8.66712
-8.63943
-8.60699
-8.56958
-8.52698
-8.47896
-8.42529
-8.36575
-8.30013
-8.22821
-8.1498
-8.06467
-7.97267
-7.87362
-7.76734
-7.65367
-7.53248
-7.40364
-7.26705
-7.12261
-6.97028
-6.81001
-6.64176
-6.46556
-6.28143
-6.08944
-5.88967
-5.68224
-5.46731
-5.24506
-5.0157
-4.77949
-4.5367
-4.28764
-4.03266
-3.77214
-3.50646
-3.23606
-2.96139
-2.68294
-2.4012
-2.1167
-1.82995
-1.54147
-1.25178
-0.961422
-0.670878
-0.380656
-0.0912368
0.196954
0.483525
0.768105
1.05025
1.32952
1.60554
1.87796
2.14649
2.41085
2.67082
2.92618
3.17682
3.42259
3.66345
3.89932
4.13025
4.35624
4.5774
4.7938
5.00565
5.21308
5.41634
5.61566
5.81133
6.00361
6.19286
6.3794
6.56362
6.74589
6.92664
7.10629
7.2853
7.46413
7.64327
7.82321
8.00445
8.18748
8.37281
8.5609
8.7522
8.94712
9.146
9.34913
9.55665
9.76862
9.98487
10.2051
10.4286
10.6548
10.8822
11.11
11.3322
11.5623
11.7234
-7.61311
-7.61873
-7.62718
-7.63508
-7.64179
-7.64772
-7.65315
-7.65826
-7.66324
-7.66823
-7.67338
-7.67879
-7.68455
-7.69075
-7.69746
-7.70472
-7.71259
-7.7211
-7.73028
-7.74016
-7.75076
-7.76209
-7.77417
-7.78701
-7.8006
-7.81495
-7.83005
-7.84592
-7.86253
-7.87988
-7.89796
-7.91676
-7.93626
-7.95646
-7.97732
-7.99886
-8.02104
-8.04384
-8.06723
-8.0912
-8.11568
-8.14066
-8.16609
-8.19193
-8.21812
-8.24463
-8.2714
-8.29838
-8.3255
-8.35271
-8.37992
-8.40706
-8.43403
-8.46075
-8.48711
-8.51301
-8.53833
-8.56296
-8.58677
-8.60963
-8.63141
-8.65195
-8.67112
-8.68875
-8.70468
-8.71875
-8.73077
-8.74057
-8.74796
-8.75276
-8.75475
-8.75375
-8.74954
-8.74192
-8.73066
-8.71556
-8.69638
-8.67291
-8.64493
-8.61219
-8.57449
-8.53158
-8.48324
-8.42926
-8.3694
-8.30346
-8.23121
-8.15246
-8.067
-7.97464
-7.87522
-7.76856
-7.6545
-7.53289
-7.40362
-7.26658
-7.12168
-6.96886
-6.80807
-6.6393
-6.46254
-6.27783
-6.08524
-5.88484
-5.67677
-5.46117
-5.23823
-5.00817
-4.77124
-4.52772
-4.27793
-4.02222
-3.76097
-3.49457
-3.22347
-2.94813
-2.66904
-2.38673
-2.1017
-1.81447
-1.52559
-1.23557
-0.944939
-0.654202
-0.363896
-0.0744992
0.213563
0.499917
0.784193
1.06597
1.34478
1.62026
1.89204
2.15984
2.42338
2.68243
2.93682
3.18639
3.43104
3.6707
3.90532
4.13493
4.35955
4.57928
4.79423
5.00457
5.21048
5.41219
5.60995
5.80403
5.99473
6.18238
6.36734
6.54997
6.73068
6.90987
7.088
7.26551
7.44288
7.6206
7.79918
7.97912
8.16094
8.34512
8.53218
8.72256
8.91669
9.1149
9.3175
9.52462
9.7363
9.95235
10.1724
10.3958
10.6218
10.8488
11.076
11.2974
11.5265
11.6869
-7.62699
-7.63189
-7.6392
-7.64611
-7.65205
-7.65733
-7.66219
-7.66681
-7.67133
-7.67592
-7.6807
-7.68578
-7.69124
-7.69718
-7.70365
-7.7107
-7.71838
-7.72672
-7.73575
-7.74549
-7.75597
-7.7672
-7.77918
-7.79193
-7.80546
-7.81975
-7.83482
-7.85065
-7.86724
-7.88459
-7.90268
-7.92151
-7.94106
-7.96133
-7.98228
-8.00391
-8.02619
-8.0491
-8.0726
-8.09666
-8.12125
-8.14632
-8.17183
-8.19774
-8.22398
-8.25053
-8.27732
-8.30431
-8.33143
-8.35861
-8.38577
-8.41284
-8.43972
-8.46632
-8.49254
-8.51827
-8.5434
-8.56782
-8.59139
-8.614
-8.6355
-8.65575
-8.6746
-8.69191
-8.7075
-8.72121
-8.73288
-8.74231
-8.74933
-8.75374
-8.75535
-8.75397
-8.74938
-8.74137
-8.72974
-8.71426
-8.69471
-8.67087
-8.64252
-8.60942
-8.57136
-8.5281
-8.47941
-8.42508
-8.36488
-8.29859
-8.22602
-8.14692
-8.06111
-7.9684
-7.86863
-7.7616
-7.64716
-7.52516
-7.39549
-7.25803
-7.11271
-6.95944
-6.79819
-6.62893
-6.45167
-6.26644
-6.07331
-5.87235
-5.6637
-5.44752
-5.22397
-4.9933
-4.75574
-4.5116
-4.26117
-4.00484
-3.74296
-3.47597
-3.20429
-2.92842
-2.64885
-2.3661
-2.08069
-1.79317
-1.50404
-1.21385
-0.923113
-0.632387
-0.342198
-0.0530297
0.234701
0.520622
0.804369
1.08554
1.36367
1.63837
1.90929
2.17612
2.43862
2.69653
2.94972
3.19801
3.44134
3.67959
3.91278
4.14087
4.36396
4.5821
4.79545
5.00415
5.20842
5.40846
5.60456
5.79697
5.98602
6.17202
6.35536
6.53638
6.71552
6.89317
7.0698
7.24585
7.42183
7.59821
7.77552
7.95427
8.13498
8.31817
8.50432
8.69393
8.88741
9.08512
9.28733
9.4942
9.70572
9.92171
10.1417
10.3651
10.591
10.8177
11.0446
11.2654
11.4936
11.654
-7.64166
-7.64585
-7.65203
-7.65787
-7.66286
-7.66726
-7.6713
-7.67516
-7.67898
-7.68294
-7.68713
-7.69169
-7.69668
-7.70219
-7.70828
-7.71499
-7.72236
-7.73043
-7.73921
-7.74873
-7.75901
-7.77006
-7.78188
-7.79449
-7.80787
-7.82206
-7.83702
-7.85277
-7.86929
-7.88658
-7.90462
-7.92342
-7.94294
-7.9632
-7.98414
-8.00576
-8.02802
-8.0509
-8.07435
-8.09835
-8.12285
-8.14782
-8.17321
-8.19898
-8.22508
-8.25145
-8.27804
-8.30481
-8.33169
-8.3586
-8.38547
-8.41223
-8.43876
-8.46499
-8.49081
-8.51612
-8.54081
-8.56477
-8.58787
-8.60998
-8.63098
-8.65073
-8.66906
-8.68585
-8.70092
-8.71412
-8.72525
-8.73417
-8.74068
-8.74459
-8.74571
-8.74384
-8.73878
-8.73032
-8.71823
-8.70232
-8.68236
-8.65811
-8.62937
-8.59589
-8.55747
-8.51384
-8.46483
-8.41017
-8.34966
-8.28307
-8.21018
-8.1308
-8.04469
-7.95168
-7.8516
-7.74427
-7.62952
-7.50721
-7.37722
-7.23944
-7.09377
-6.94015
-6.77854
-6.60891
-6.43127
-6.24564
-6.05209
-5.85071
-5.64162
-5.42499
-5.20099
-4.96986
-4.73184
-4.48723
-4.23636
-3.97958
-3.71727
-3.44987
-3.17783
-2.90164
-2.6218
-2.33884
-2.05328
-1.76566
-1.4765
-1.18636
-0.895782
-0.605321
-0.315499
-0.0268024
0.260349
0.545579
0.828537
1.10883
1.38602
1.65969
1.92948
2.19511
2.4563
2.71286
2.96461
3.21142
3.4532
3.68988