/*--------------------------------*- C++ -*----------------------------------*\
  =========                 |
  \\      /  F ield         | OpenFOAM: The Open Source CFD Toolbox
   \\    /   O peration     | Website:  https://openfoam.org
    \\  /    A nd           | Version:  11
     \\/     M anipulation  |
\*---------------------------------------------------------------------------*/
FoamFile
{
    format      ascii;
    class       surfaceScalarField;
    location    "200";
    object      phi;
}
// * * * * * * * * * * * * * * * * * * * * * * * * * * * * * * * * * * * * * //

dimensions      [0 3 -1 0 0 0 0];

internalField   nonuniform List<scalar> 
24170
(
3.129e-06
5.94012e-08
3.04662e-06
8.23812e-08
2.97353e-06
7.30951e-08
2.90489e-06
6.86367e-08
2.84056e-06
6.43331e-08
2.78323e-06
5.73294e-08
2.7339e-06
4.93296e-08
2.69194e-06
4.19582e-08
2.65626e-06
3.56816e-08
2.6258e-06
3.04554e-08
2.59959e-06
2.62107e-08
2.57678e-06
2.28058e-08
2.55671e-06
2.00729e-08
2.53879e-06
1.79152e-08
2.52264e-06
1.61521e-08
2.50718e-06
1.54618e-08
2.49286e-06
1.43199e-08
2.00735e-08
2.47278e-06
3.45306e-06
2.3586e-08
3.457e-06
7.84398e-08
3.45054e-06
7.95567e-08
3.43908e-06
8.00946e-08
3.4243e-06
7.91131e-08
3.40705e-06
7.45814e-08
3.38783e-06
6.85517e-08
3.3673e-06
6.24888e-08
3.34614e-06
5.68344e-08
3.32495e-06
5.16447e-08
3.30421e-06
4.69522e-08
3.28419e-06
4.28259e-08
3.26509e-06
3.91754e-08
3.24693e-06
3.60671e-08
3.22982e-06
3.32672e-08
3.21369e-06
3.15884e-08
3.19887e-06
2.91432e-08
3.14542e-08
3.18748e-06
3.66816e-06
1.79432e-08
3.6792e-06
6.73994e-08
3.68543e-06
7.33305e-08
3.68946e-06
7.6062e-08
3.69105e-06
7.75175e-08
3.69008e-06
7.55502e-08
3.68694e-06
7.16918e-08
3.6821e-06
6.73342e-08
3.67594e-06
6.29915e-08
3.66879e-06
5.87909e-08
3.66094e-06
5.48088e-08
3.65262e-06
5.11466e-08
3.64401e-06
4.77762e-08
3.63529e-06
4.47922e-08
3.6265e-06
4.20531e-08
3.61804e-06
4.00535e-08
3.60931e-06
3.78658e-08
3.76529e-08
3.60311e-06
3.92585e-06
1.7483e-08
3.93592e-06
5.73296e-08
3.94257e-06
6.66805e-08
3.94811e-06
7.05229e-08
3.95252e-06
7.31053e-08
3.95546e-06
7.26049e-08
3.95713e-06
7.00258e-08
3.95776e-06
6.67051e-08
3.95754e-06
6.32107e-08
3.95662e-06
5.97116e-08
3.95513e-06
5.62977e-08
3.95319e-06
5.30819e-08
3.9509e-06
5.00675e-08
3.94835e-06
4.73393e-08
3.94558e-06
4.48228e-08
3.94286e-06
4.27722e-08
3.93993e-06
4.07921e-08
3.94972e-08
3.93809e-06
4.2082e-06
1.6411e-08
4.21598e-06
4.95455e-08
4.22168e-06
6.09842e-08
4.22678e-06
6.54199e-08
4.23153e-06
6.83596e-08
4.2355e-06
6.86368e-08
4.23866e-06
6.68619e-08
4.24113e-06
6.42337e-08
4.24301e-06
6.13259e-08
4.2444e-06
5.83259e-08
4.24537e-06
5.53315e-08
4.24599e-06
5.24533e-08
4.24634e-06
4.972e-08
4.24648e-06
4.71971e-08
4.24645e-06
4.48521e-08
4.24642e-06
4.28026e-08
4.24635e-06
4.08685e-08
3.91419e-08
4.2467e-06
4.51071e-06
1.47887e-08
4.51688e-06
4.33733e-08
4.52213e-06
5.5737e-08
4.52694e-06
6.06051e-08
4.53165e-06
6.36497e-08
4.5359e-06
6.43915e-08
4.53957e-06
6.31925e-08
4.54272e-06
6.1078e-08
4.54544e-06
5.861e-08
4.54777e-06
5.59883e-08
4.54978e-06
5.33207e-08
4.55153e-06
5.071e-08
4.55304e-06
4.8202e-08
4.5544e-06
4.58444e-08
4.55562e-06
4.36276e-08
4.55683e-06
4.15956e-08
4.55804e-06
3.96533e-08
3.77413e-08
4.55944e-06
4.83433e-06
1.3179e-08
4.83963e-06
3.80766e-08
4.84475e-06
5.06141e-08
4.84945e-06
5.59039e-08
4.85408e-06
5.90197e-08
4.85839e-06
6.00777e-08
4.86226e-06
5.93248e-08
4.86572e-06
5.76186e-08
4.86883e-06
5.55016e-08
4.87163e-06
5.31851e-08
4.87417e-06
5.07844e-08
4.87648e-06
4.83959e-08
4.87861e-06
4.60741e-08
4.8806e-06
4.38554e-08
4.88248e-06
4.174e-08
4.88434e-06
3.9736e-08
4.88621e-06
3.7784e-08
3.58008e-08
4.88815e-06
5.18105e-06
1.1713e-08
5.18575e-06
3.33714e-08
5.19075e-06
4.56138e-08
5.1954e-06
5.12549e-08
5.19998e-06
5.44369e-08
5.20434e-06
5.57223e-08
5.20833e-06
5.53334e-08
5.21197e-06
5.39736e-08
5.21532e-06
5.21555e-08
5.2184e-06
5.01008e-08
5.22126e-06
4.793e-08
5.22392e-06
4.57351e-08
5.22642e-06
4.35738e-08
5.2288e-06
4.14772e-08
5.23109e-06
3.94496e-08
5.23334e-06
3.74848e-08
5.23558e-06
3.55407e-08
3.35515e-08
5.23783e-06
5.55269e-06
1.03581e-08
5.55689e-06
2.91763e-08
5.56169e-06
4.08089e-08
5.5663e-06
4.66491e-08
5.57086e-06
4.98759e-08
5.57526e-06
5.13213e-08
5.57936e-06
5.12335e-08
5.58315e-06
5.0179e-08
5.58668e-06
4.86276e-08
5.58997e-06
4.68083e-08
5.59306e-06
4.48448e-08
5.59597e-06
4.28262e-08
5.59873e-06
4.08108e-08
5.60138e-06
3.88284e-08
5.60394e-06
3.68852e-08
5.60645e-06
3.49728e-08
5.60893e-06
3.30609e-08
3.11095e-08
5.61138e-06
5.95104e-06
9.09549e-09
5.95478e-06
2.54301e-08
5.95935e-06
3.6238e-08
5.96391e-06
4.20967e-08
5.96845e-06
4.53322e-08
5.97289e-06
4.68809e-08
5.97709e-06
4.70351e-08
5.98102e-06
4.62488e-08
5.98471e-06
4.49392e-08
5.98818e-06
4.33365e-08
5.99146e-06
4.15659e-08
5.99457e-06
3.97138e-08
5.99754e-06
3.7838e-08
6.0004e-06
3.59685e-08
6.00317e-06
3.41145e-08
6.00587e-06
3.22704e-08
6.00852e-06
3.04163e-08
2.85348e-08
6.01109e-06
6.37798e-06
7.92484e-09
6.38134e-06
2.20683e-08
6.38567e-06
3.19118e-08
6.39015e-06
3.76141e-08
6.39467e-06
4.08116e-08
6.39914e-06
4.24131e-08
6.40342e-06
4.27506e-08
6.40748e-06
4.21936e-08
6.41132e-06
4.11024e-08
6.41495e-06
3.97001e-08
6.41841e-06
3.81117e-08
6.4217e-06
3.64205e-08
6.42485e-06
3.46829e-08
6.42789e-06
3.29303e-08
6.43083e-06
3.1175e-08
6.43368e-06
2.94168e-08
6.43645e-06
2.76448e-08
2.58589e-08
6.43913e-06
5.74176e-06
6.99912e-09
5.74434e-06
1.94864e-08
5.74781e-06
2.84443e-08
5.75153e-06
3.38886e-08
5.75533e-06
3.70121e-08
5.75912e-06
3.86244e-08
5.7628e-06
3.90722e-08
5.76632e-06
3.86767e-08
5.76967e-06
3.77519e-08
5.77286e-06
3.65073e-08
5.7759e-06
3.50658e-08
5.77882e-06
3.35079e-08
5.78161e-06
3.18884e-08
5.7843e-06
3.02399e-08
5.7869e-06
2.85775e-08
5.78941e-06
2.69057e-08
5.79184e-06
2.522e-08
2.35318e-08
5.79416e-06
6.99914e-06
6.01596e-09
7.00187e-06
1.67541e-08
7.00563e-06
2.46817e-08
7.0098e-06
2.9724e-08
7.01411e-06
3.26947e-08
7.01846e-06
3.42735e-08
7.02273e-06
3.48021e-08
7.02686e-06
3.45556e-08
7.03081e-06
3.37982e-08
7.0346e-06
3.27204e-08
7.03822e-06
3.14394e-08
7.0417e-06
3.00319e-08
7.04504e-06
2.85507e-08
7.04825e-06
2.70286e-08
7.05134e-06
2.54841e-08
7.05432e-06
2.39264e-08
7.05718e-06
2.23568e-08
2.07956e-08
7.05992e-06
8.53188e-06
4.98311e-09
8.53473e-06
1.38987e-08
8.53877e-06
2.06515e-08
8.54336e-06
2.51273e-08
8.54822e-06
2.78409e-08
8.55317e-06
2.93227e-08
8.55808e-06
2.98859e-08
8.56288e-06
2.97618e-08
8.56751e-06
2.91639e-08
8.57197e-06
2.82568e-08
8.57626e-06
2.71483e-08
8.58039e-06
2.59093e-08
8.58435e-06
2.45892e-08
8.58816e-06
2.32209e-08
8.59182e-06
2.18249e-08
8.59533e-06
2.04147e-08
8.59869e-06
1.89962e-08
1.75947e-08
8.60189e-06
1.04003e-05
3.90961e-09
1.04033e-05
1.09395e-08
1.04075e-05
1.63753e-08
1.04125e-05
2.01067e-08
1.0418e-05
2.2434e-08
1.04235e-05
2.37347e-08
1.04292e-05
2.42694e-08
1.04347e-05
2.42258e-08
1.04401e-05
2.37681e-08
1.04453e-05
2.30295e-08
1.04504e-05
2.21027e-08
1.04552e-05
2.10505e-08
1.04599e-05
1.99172e-08
1.04644e-05
1.8734e-08
1.04687e-05
1.75222e-08
1.04728e-05
1.62974e-08
1.04767e-05
1.50685e-08
1.38627e-08
1.04805e-05
1.26779e-05
2.8004e-09
1.2681e-05
7.87095e-09
1.26855e-05
1.18514e-08
1.26909e-05
1.46564e-08
1.26969e-05
1.64462e-08
1.27032e-05
1.74601e-08
1.27096e-05
1.78882e-08
1.27159e-05
1.78698e-08
1.27222e-05
1.75224e-08
1.27283e-05
1.69432e-08
1.27342e-05
1.62047e-08
1.27399e-05
1.53577e-08
1.27453e-05
1.44389e-08
1.27506e-05
1.34753e-08
1.27556e-05
1.24866e-08
1.27604e-05
1.14883e-08
1.2765e-05
1.04897e-08
9.51735e-09
1.27694e-05
1.54543e-05
1.64449e-09
1.54576e-05
4.6467e-09
1.54624e-05
7.02168e-09
1.54683e-05
8.71594e-09
1.5475e-05
9.80305e-09
1.5482e-05
1.04083e-08
1.54893e-05
1.06414e-08
1.54966e-05
1.0586e-08
1.55038e-05
1.03127e-08
1.55108e-05
9.88085e-09
1.55177e-05
9.33687e-09
1.55243e-05
8.71501e-09
1.55307e-05
8.04091e-09
1.55369e-05
7.33426e-09
1.55428e-05
6.61038e-09
1.55484e-05
5.88179e-09
1.55537e-05
5.15625e-09
4.45669e-09
1.55588e-05
1.88389e-05
4.01755e-10
1.88424e-05
1.14189e-09
1.88477e-05
1.71215e-09
1.88543e-05
2.09394e-09
1.88618e-05
2.30652e-09
1.88698e-05
2.3778e-09
1.88782e-05
2.32972e-09
1.88866e-05
2.18198e-09
1.88949e-05
1.95462e-09
1.89031e-05
1.66579e-09
1.89111e-05
1.33066e-09
1.89189e-05
9.61698e-10
1.89264e-05
5.69627e-10
1.89335e-05
1.63581e-10
1.89404e-05
-2.48582e-10
1.89469e-05
-6.59712e-10
1.89532e-05
-1.06563e-09
-1.44878e-09
1.89591e-05
2.29648e-05
-1.02935e-09
2.29688e-05
-2.9327e-09
2.29751e-05
-4.49695e-09
2.29828e-05
-5.68621e-09
2.29917e-05
-6.52166e-09
2.30011e-05
-7.08949e-09
2.30109e-05
-7.47707e-09
2.30209e-05
-7.73894e-09
2.30307e-05
-7.91206e-09
2.30404e-05
-8.02749e-09
2.30499e-05
-8.10935e-09
2.3059e-05
-8.17194e-09
2.30678e-05
-8.22353e-09
2.30762e-05
-8.2682e-09
2.30843e-05
-8.30829e-09
2.3092e-05
-8.34361e-09
2.30993e-05
-8.37508e-09
-8.39154e-09
2.31062e-05
1.68118e-05
-2.15306e-09
1.6815e-05
-6.10592e-09
1.68198e-05
-9.33094e-09
1.68258e-05
-1.16893e-08
1.68326e-05
-1.32407e-08
1.68397e-05
-1.42131e-08
1.6847e-05
-1.47939e-08
1.68543e-05
-1.50869e-08
1.68616e-05
-1.51711e-08
1.68687e-05
-1.51187e-08
1.68756e-05
-1.49823e-08
1.68822e-05
-1.47951e-08
1.68885e-05
-1.45776e-08
1.68946e-05
-1.43439e-08
1.69004e-05
-1.41024e-08
1.69059e-05
-1.3858e-08
1.69112e-05
-1.36137e-08
-1.3363e-08
1.69161e-05
1.46356e-05
-3.23234e-09
1.46387e-05
-9.19519e-09
1.46435e-05
-1.40491e-08
1.46492e-05
-1.74383e-08
1.46555e-05
-1.95344e-08
1.46621e-05
-2.07872e-08
1.46687e-05
-2.14666e-08
1.46754e-05
-2.17088e-08
1.46818e-05
-2.16448e-08
1.46881e-05
-2.13911e-08
1.46941e-05
-2.10235e-08
1.46999e-05
-2.05865e-08
1.47055e-05
-2.01106e-08
1.47107e-05
-1.96165e-08
1.47158e-05
-1.91179e-08
1.47205e-05
-1.86218e-08
1.4725e-05
-1.81335e-08
-1.76484e-08
1.47293e-05
1.27411e-05
-4.24296e-09
1.27443e-05
-1.2325e-08
1.27491e-05
-1.88832e-08
1.27548e-05
-2.30891e-08
1.27607e-05
-2.55211e-08
1.27669e-05
-2.69529e-08
1.27731e-05
-2.76473e-08
1.27791e-05
-2.77537e-08
1.2785e-05
-2.74791e-08
1.27906e-05
-2.69891e-08
1.27959e-05
-2.63731e-08
1.2801e-05
-2.56827e-08
1.28059e-05
-2.49551e-08
1.28105e-05
-2.42158e-08
1.28148e-05
-2.34803e-08
1.28189e-05
-2.27566e-08
1.28229e-05
-2.20498e-08
-2.13568e-08
1.28266e-05
1.10918e-05
-5.08746e-09
1.1095e-05
-1.55489e-08
1.11001e-05
-2.4012e-08
1.11058e-05
-2.87176e-08
1.11115e-05
-3.12615e-08
1.11173e-05
-3.27725e-08
1.1123e-05
-3.33821e-08
1.11286e-05
-3.32725e-08
1.11338e-05
-3.27461e-08
1.11388e-05
-3.20004e-08
1.11436e-05
-3.11271e-08
1.11481e-05
-3.0183e-08
1.11524e-05
-2.92111e-08
1.11564e-05
-2.824e-08
1.11602e-05
-2.72848e-08
1.11638e-05
-2.63537e-08
1.11672e-05
-2.54505e-08
-2.45731e-08
1.11704e-05
9.65582e-06
-5.69516e-09
9.65925e-06
-1.89744e-08
9.6646e-06
-2.93597e-08
9.67009e-06
-3.42174e-08
9.67566e-06
-3.68233e-08
9.68122e-06
-3.83358e-08
9.68656e-06
-3.87193e-08
9.69159e-06
-3.83051e-08
9.69634e-06
-3.74959e-08
9.70082e-06
-3.6486e-08
9.70505e-06
-3.53543e-08
9.70903e-06
-3.41603e-08
9.71277e-06
-3.29516e-08
9.71628e-06
-3.17576e-08
9.71959e-06
-3.05933e-08
9.7227e-06
-2.94658e-08
9.72563e-06
-2.83774e-08
-2.73241e-08
9.72838e-06
8.40532e-06
-5.66614e-09
8.40964e-06
-2.32905e-08
8.41488e-06
-3.45964e-08
8.41991e-06
-3.92473e-08
8.42527e-06
-4.21918e-08
8.43068e-06
-4.37466e-08
8.43577e-06
-4.38079e-08
8.44048e-06
-4.30143e-08
8.44485e-06
-4.18684e-08
8.44891e-06
-4.05464e-08
8.45268e-06
-3.91181e-08
8.45616e-06
-3.76456e-08
8.45939e-06
-3.61787e-08
8.46238e-06
-3.4745e-08
8.46514e-06
-3.33596e-08
8.46771e-06
-3.20286e-08
8.47008e-06
-3.07541e-08
-2.95325e-08
8.47229e-06
7.31455e-06
-2.92862e-09
7.32119e-06
-2.99346e-08
7.32674e-06
-4.01487e-08
7.3317e-06
-4.42003e-08
7.3371e-06
-4.75913e-08
7.34242e-06
-4.90694e-08
7.3473e-06
-4.8688e-08
7.35171e-06
-4.74295e-08
7.35569e-06
-4.58487e-08
7.35925e-06
-4.41045e-08
7.36241e-06
-4.2277e-08
7.3652e-06
-4.04393e-08
7.36767e-06
-3.86434e-08
7.36984e-06
-3.69139e-08
7.37174e-06
-3.52659e-08
7.37342e-06
-3.3702e-08
7.37489e-06
-3.22227e-08
-3.08185e-08
7.37617e-06
6.36245e-06
4.6871e-09
6.37189e-06
-3.93771e-08
6.37932e-06
-4.75768e-08
6.38596e-06
-5.08425e-08
6.39225e-06
-5.38748e-08
6.39756e-06
-5.43839e-08
6.40186e-06
-5.29843e-08
6.40534e-06
-5.09118e-08
6.40814e-06
-4.86504e-08
6.41033e-06
-4.62912e-08
6.41196e-06
-4.39116e-08
6.41311e-06
-4.15884e-08
6.41384e-06
-3.93724e-08
6.41421e-06
-3.72818e-08
6.41427e-06
-3.53305e-08
6.41409e-06
-3.35144e-08
6.4137e-06
-3.18346e-08
-3.02713e-08
6.41315e-06
5.5412e-06
8.94927e-09
5.55033e-06
-4.85006e-08
5.55834e-06
-5.55958e-08
5.56605e-06
-5.85454e-08
5.57251e-06
-6.03374e-08
5.57684e-06
-5.87099e-08
5.57908e-06
-5.52272e-08
5.57964e-06
-5.14727e-08
5.57889e-06
-4.78985e-08
5.5771e-06
-4.45079e-08
5.57451e-06
-4.13198e-08
5.5713e-06
-3.83767e-08
5.56762e-06
-3.56868e-08
5.56358e-06
-3.3242e-08
5.55928e-06
-3.10392e-08
5.55483e-06
-2.90613e-08
5.55031e-06
-2.73103e-08
-2.57369e-08
5.54577e-06
4.86004e-06
-2.3487e-08
4.86539e-06
-5.3843e-08
4.86524e-06
-5.54508e-08
4.86217e-06
-5.54765e-08
4.857e-06
-5.51678e-08
4.8495e-06
-5.12103e-08
4.83981e-06
-4.55319e-08
4.82842e-06
-4.00805e-08
4.81584e-06
-3.53263e-08
4.80257e-06
-3.12308e-08
4.78897e-06
-2.7723e-08
4.77533e-06
-2.47401e-08
4.76185e-06
-2.22043e-08
4.74865e-06
-2.00445e-08
4.73583e-06
-1.82143e-08
4.72345e-06
-1.66808e-08
4.71162e-06
-1.54817e-08
-1.51365e-08
4.70102e-06
4.17919e-06
4.12535e-06
4.0699e-06
4.01442e-06
3.95925e-06
3.90804e-06
3.86251e-06
3.82243e-06
3.7871e-06
3.75587e-06
3.72815e-06
3.70341e-06
3.6812e-06
3.66116e-06
3.64295e-06
3.62626e-06
3.61078e-06
3.59565e-06
1.48247e-08
-1.48411e-08
2.84377e-08
-1.36375e-08
3.5527e-08
-7.10752e-09
3.55521e-08
-4.31307e-11
2.93747e-08
6.1636e-09
1.83546e-08
1.10042e-08
3.81314e-09
1.45305e-08
-1.32313e-08
1.703e-08
-3.2056e-08
1.88161e-08
-5.21861e-08
2.01171e-08
-7.33042e-08
2.11114e-08
-9.52354e-08
2.19194e-08
-1.17856e-07
2.2615e-08
-1.41107e-07
2.32406e-08
-1.64932e-07
2.38213e-08
-1.89315e-07
2.43727e-08
-2.14227e-07
2.49091e-08
-2.39683e-07
2.54455e-08
-2.65684e-07
2.59997e-08
-2.92286e-07
2.65925e-08
-3.1954e-07
2.72528e-08
-3.47573e-07
2.80267e-08
-3.76508e-07
2.89341e-08
-4.06514e-07
3.00024e-08
-4.37781e-07
3.12674e-08
-4.69054e-07
3.12718e-08
-4.98296e-07
2.92413e-08
-5.27291e-07
2.89924e-08
-5.58905e-07
3.16108e-08
-5.93413e-07
3.45019e-08
-6.3192e-07
3.85013e-08
-6.77071e-07
4.514e-08
-7.19863e-07
4.27832e-08
-7.5791e-07
3.80311e-08
-8.01141e-07
4.3225e-08
-8.44801e-07
4.36462e-08
-8.84846e-07
4.00423e-08
-9.24462e-07
3.96055e-08
-9.66552e-07
4.20882e-08
-1.00905e-06
4.24932e-08
-1.05179e-06
4.27352e-08
-1.0947e-06
4.29008e-08
-1.1377e-06
4.30005e-08
-1.18073e-06
4.3026e-08
-1.22372e-06
4.29939e-08
-1.26664e-06
4.2917e-08
-1.30945e-06
4.28085e-08
-1.35213e-06
4.26763e-08
-1.39465e-06
4.25257e-08
-1.43702e-06
4.236e-08
-1.4792e-06
4.21804e-08
-1.52119e-06
4.19874e-08
-1.56298e-06
4.17804e-08
-1.60454e-06
4.15587e-08
-1.64587e-06
4.13207e-08
-1.68694e-06
4.10643e-08
-1.72773e-06
4.07878e-08
-1.76823e-06
4.04888e-08
-1.80839e-06
4.01657e-08
-1.84822e-06
3.98155e-08
-1.88765e-06
3.94368e-08
-1.92669e-06
3.90271e-08
-1.96527e-06
3.8585e-08
-2.00338e-06
3.81075e-08
-2.04097e-06
3.75935e-08
-2.07801e-06
3.70402e-08
-2.11445e-06
3.64471e-08
-2.15027e-06
3.58117e-08
-2.18539e-06
3.51336e-08
-2.2198e-06
3.44106e-08
-2.25344e-06
3.36426e-08
-2.28627e-06
3.28274e-08
-2.31822e-06
3.19649e-08
-2.34928e-06
3.10532e-08
-2.37936e-06
3.00925e-08
-2.40844e-06
2.9081e-08
-2.43646e-06
2.80196e-08
-2.46337e-06
2.69071e-08
-2.4891e-06
2.57442e-08
-2.51363e-06
2.45287e-08
-2.53688e-06
2.32612e-08
-2.55881e-06
2.19395e-08
-2.57936e-06
2.05637e-08
-2.59848e-06
1.91302e-08
-2.6161e-06
1.76385e-08
-2.63217e-06
1.60843e-08
-2.64662e-06
1.44652e-08
-2.65937e-06
1.27749e-08
-2.67035e-06
1.10068e-08
-2.67948e-06
9.1491e-09
-2.68664e-06
7.18447e-09
-2.69172e-06
5.09775e-09
-2.69459e-06
2.89436e-09
-2.69522e-06
6.41196e-10
-2.69375e-06
-1.45414e-09
-2.69039e-06
-3.35392e-09
-2.68517e-06
-5.20187e-09
-2.67812e-06
-7.04086e-09
-2.66922e-06
-8.88887e-09
-2.65846e-06
-1.07492e-08
-2.64582e-06
-1.262e-08
-2.63131e-06
-1.44987e-08
-2.6149e-06
-1.63813e-08
-2.59661e-06
-1.82642e-08
-2.57643e-06
-2.01437e-08
-2.55438e-06
-2.20153e-08
-2.53046e-06
-2.38758e-08
-2.5047e-06
-2.57194e-08
-2.47711e-06
-2.75429e-08
-2.44772e-06
-2.93395e-08
-2.41656e-06
-3.11064e-08
-2.38368e-06
-3.28354e-08
-2.34911e-06
-3.45247e-08
-2.31289e-06
-3.6165e-08
-2.27509e-06
-3.77553e-08
-2.23576e-06
-3.9286e-08
-2.19497e-06
-4.07568e-08
-2.15277e-06
-4.21581e-08
-2.10926e-06
-4.34894e-08
-2.06448e-06
-4.47394e-08
-2.01853e-06
-4.59116e-08
-1.97147e-06
-4.7006e-08
-1.9234e-06
-4.80241e-08
-1.87439e-06
-4.89537e-08
-1.82456e-06
-4.97961e-08
-1.77399e-06
-5.05448e-08
-1.72278e-06
-5.12166e-08
-1.67101e-06
-5.17941e-08
-1.61879e-06
-5.22813e-08
-1.56619e-06
-5.26673e-08
-1.51333e-06
-5.29589e-08
-1.4603e-06
-5.31473e-08
-1.40721e-06
-5.32387e-08
-1.35413e-06
-5.32277e-08
-1.30118e-06
-5.31197e-08
-1.24845e-06
-5.2914e-08
-1.19601e-06
-5.26121e-08
-1.14395e-06
-5.22145e-08
-1.09236e-06
-5.17191e-08
-1.04131e-06
-5.11391e-08
-9.90886e-07
-5.04855e-08
-9.41136e-07
-4.97777e-08
-8.92118e-07
-4.90214e-08
-8.43869e-07
-4.82254e-08
-7.96431e-07
-4.73892e-08
-7.4983e-07
-4.65256e-08
-7.04092e-07
-4.56374e-08
-6.59223e-07
-4.47398e-08
-6.15233e-07
-4.38341e-08
-5.72109e-07
-4.29369e-08
-5.29841e-07
-4.20519e-08
-4.88393e-07
-4.11976e-08
-4.47737e-07
-4.03754e-08
-4.07818e-07
-3.96048e-08
-3.68584e-07
-3.88915e-08
-3.29957e-07
-3.82534e-08
-2.91868e-07
-3.76904e-08
-2.54213e-07
-3.72282e-08
-2.16899e-07
-3.68689e-08
-1.7981e-07
-3.66195e-08
-1.42827e-07
-3.65005e-08
-1.05772e-07
-3.6553e-08
-6.85526e-08
-3.67119e-08
-3.11167e-08
-3.69148e-08
6.45621e-09
-3.70546e-08
4.39717e-08
-3.69913e-08
8.14554e-08
-3.69795e-08
1.19407e-07
-3.74552e-08
1.58354e-07
-3.84779e-08
1.98749e-07
-3.99342e-08
2.40915e-07
-4.17365e-08
2.85116e-07
-4.37825e-08
3.31496e-07
-4.59951e-08
3.80138e-07
-4.82729e-08
4.30923e-07
-5.04542e-08
4.83447e-07
-5.22139e-08
5.36666e-07
-5.29524e-08
5.87847e-07
-5.09376e-08
6.30941e-07
-4.28861e-08
2.57691e-09
6.2856e-07
7.90337e-09
-2.27587e-08
7.88901e-09
-1.36401e-08
3.09493e-09
-2.32381e-09
-4.9398e-09
7.98235e-09
-1.57736e-08
1.69903e-08
-2.93392e-08
2.45621e-08
-4.55094e-08
3.06948e-08
-6.40232e-08
3.55366e-08
-8.45373e-08
3.9325e-08
-1.06743e-07
4.23159e-08
-1.30375e-07
4.47389e-08
-1.5524e-07
4.67774e-08
-1.81197e-07
4.85677e-08
-2.0817e-07
5.02077e-08
-2.3612e-07
5.17675e-08
-2.65052e-07
5.32991e-08
-2.94989e-07
5.4844e-08
-3.25986e-07
5.64361e-08
-3.58092e-07
5.81035e-08
-3.91379e-07
5.98748e-08
-4.25912e-07
6.17841e-08
-4.61743e-07
6.38541e-08
-4.98868e-07
6.60573e-08
-5.37166e-07
6.8299e-08
-5.76318e-07
7.04196e-08
-6.17036e-07
7.19891e-08
-6.6077e-07
7.29747e-08
-7.06227e-07
7.44473e-08
-7.51419e-07
7.68012e-08
-7.96546e-07
7.96247e-08
-8.40679e-07
8.26293e-08
-8.80676e-07
8.51299e-08
-9.23189e-07
8.52904e-08
-9.69626e-07
8.44604e-08
-1.01157e-06
8.51662e-08
-1.0528e-06
8.48723e-08
-1.09648e-06
8.37188e-08
-1.14016e-06
8.32793e-08
-1.18164e-06
8.35666e-08
-1.22269e-06
8.35388e-08
-1.26331e-06
8.33481e-08
-1.3035e-06
8.30917e-08
-1.3433e-06
8.27952e-08
-1.38274e-06
8.24653e-08
-1.42185e-06
8.21044e-08
-1.46065e-06
8.17157e-08
-1.49914e-06
8.1303e-08
-1.53734e-06
8.08689e-08
-1.57523e-06
8.04147e-08
-1.61281e-06
7.99407e-08
-1.65007e-06
7.94455e-08
-1.68702e-06
7.89273e-08
-1.72362e-06
7.83834e-08
-1.75988e-06
7.78108e-08
-1.79577e-06
7.72055e-08
-1.83127e-06
7.6564e-08
-1.86637e-06
7.58822e-08
-1.90104e-06
7.51562e-08
-1.93526e-06
7.4382e-08
-1.969e-06
7.35557e-08
-2.00224e-06
7.26736e-08
-2.03495e-06
7.17323e-08
-2.06709e-06
7.07281e-08
-2.09864e-06
6.96577e-08
-2.12956e-06
6.85178e-08
-2.15983e-06
6.73057e-08
-2.1894e-06
6.60185e-08
-2.21824e-06
6.4654e-08
-2.24631e-06
6.32099e-08
-2.27359e-06
6.16842e-08
-2.30002e-06
6.0075e-08
-2.32557e-06
5.83805e-08
-2.3502e-06
5.65991e-08
-2.37387e-06
5.47294e-08
-2.39655e-06
5.27702e-08
-2.41818e-06
5.07205e-08
-2.43874e-06
4.85801e-08
-2.45818e-06
4.63481e-08
-2.47646e-06
4.40241e-08
-2.49353e-06
4.16071e-08
-2.50936e-06
3.90968e-08
-2.52391e-06
3.64921e-08
-2.53713e-06
3.37928e-08
-2.54899e-06
3.09974e-08
-2.55944e-06
2.81057e-08
-2.56847e-06
2.51167e-08
-2.57602e-06
2.20304e-08
-2.58208e-06
1.88459e-08
-2.58662e-06
1.55643e-08
-2.58964e-06
1.21869e-08
-2.59116e-06
8.72281e-09
-2.59125e-06
5.19662e-09
-2.59e-06
1.65011e-09
-2.58747e-06
-1.87651e-09
-2.58352e-06
-5.39711e-09
-2.57792e-06
-8.94865e-09
-2.57058e-06
-1.25345e-08
-2.56146e-06
-1.61517e-08
-2.55054e-06
-1.98001e-08
-2.53781e-06
-2.34761e-08
-2.52324e-06
-2.71739e-08
-2.50685e-06
-3.08867e-08
-2.4886e-06
-3.46068e-08
-2.46852e-06
-3.83267e-08
-2.44661e-06
-4.2038e-08
-2.42287e-06
-4.57329e-08
-2.39731e-06
-4.94025e-08
-2.36996e-06
-5.30377e-08
-2.34085e-06
-5.66289e-08
-2.30999e-06
-6.01661e-08
-2.27742e-06
-6.36392e-08
-2.24319e-06
-6.70374e-08
-2.20733e-06
-7.03507e-08
-2.1699e-06
-7.35681e-08
-2.13095e-06
-7.66795e-08
-2.09054e-06
-7.96741e-08
-2.04872e-06
-8.25428e-08
-2.00559e-06
-8.52759e-08
-1.9612e-06
-8.7864e-08
-1.91562e-06
-9.02963e-08
-1.86894e-06
-9.25672e-08
-1.82124e-06
-9.46743e-08
-1.7726e-06
-9.6623e-08
-1.72312e-06
-9.84043e-08
-1.67289e-06
-1.00003e-07
-1.622e-06
-1.01419e-07
-1.57055e-06
-1.02667e-07
-1.51863e-06
-1.03733e-07
-1.46633e-06
-1.04613e-07
-1.41374e-06
-1.05298e-07
-1.36096e-06
-1.05791e-07
-1.30809e-06
-1.06084e-07
-1.25522e-06
-1.06183e-07
-1.20245e-06
-1.06086e-07
-1.14986e-06
-1.05798e-07
-1.09755e-06
-1.05323e-07
-1.04559e-06
-1.04666e-07
-9.94051e-07
-1.03828e-07
-9.43016e-07
-1.02819e-07
-8.92546e-07
-1.01649e-07
-8.42713e-07
-1.00346e-07
-7.9357e-07
-9.89295e-08
-7.45167e-07
-9.74249e-08
-6.97536e-07
-9.58379e-08
-6.50711e-07
-9.41889e-08
-6.04706e-07
-9.2485e-08
-5.59538e-07
-9.07533e-08
-5.15203e-07
-8.90018e-08
-4.71698e-07
-8.72589e-08
-4.29e-07
-8.55322e-08
-3.87085e-07
-8.38563e-08
-3.45907e-07
-8.22397e-08
-3.05424e-07
-8.07162e-08
-2.65566e-07
-7.92943e-08
-2.26267e-07
-7.80165e-08
-1.87434e-07
-7.68888e-08
-1.48976e-07
-7.59467e-08
-1.10771e-07
-7.52087e-08
-7.27003e-08
-7.47148e-08
-3.46235e-08
-7.44521e-08
3.56646e-09
-7.44483e-08
4.19572e-08
-7.46864e-08
8.06815e-08
-7.5186e-08
1.20007e-07
-7.59807e-08
1.60261e-07
-7.7059e-08
2.01847e-07
-7.83213e-08
2.45013e-07
-7.99015e-08
2.89854e-07
-8.20488e-08
3.36488e-07
-8.48764e-08
3.85113e-07
-8.83235e-08
4.35894e-07
-9.2295e-08
4.88967e-07
-9.66366e-08
5.4437e-07
-1.01194e-07
6.02032e-07
-1.05738e-07
6.61683e-07
-1.09924e-07
7.22788e-07
-1.13152e-07
7.84149e-07
-1.14165e-07
8.44032e-07
-1.10688e-07
8.97063e-07
-9.58018e-08
-4.67346e-08
9.46479e-07
-3.49594e-09
-1.92735e-08
-1.30196e-08
-4.1275e-09
-2.48513e-08
9.50147e-09
-3.81897e-08
2.13151e-08
-5.28821e-08
3.16784e-08
-6.90253e-08
4.07004e-08
-8.6762e-08
4.84277e-08
-1.06176e-07
5.49452e-08
-1.27254e-07
6.04003e-08
-1.49924e-07
6.49809e-08
-1.74073e-07
6.88837e-08
-1.9959e-07
7.22896e-08
-2.26377e-07
7.53521e-08
-2.54369e-07
7.81946e-08
-2.83517e-07
8.09138e-08
-3.13807e-07
8.35846e-08
-3.45231e-07
8.62654e-08
-3.77799e-07
8.90002e-08
-4.11518e-07
9.18204e-08
-4.46391e-07
9.4744e-08
-4.82378e-07
9.77699e-08
-5.19391e-07
1.00865e-07
-5.57292e-07
1.03957e-07
-5.95929e-07
1.06935e-07
-6.35159e-07
1.09649e-07
-6.75124e-07
1.11954e-07
-7.16005e-07
1.13855e-07
-7.57237e-07
1.15678e-07
-7.97988e-07
1.17551e-07
-8.37755e-07
1.19389e-07
-8.76174e-07
1.21045e-07
-9.13182e-07
1.22134e-07
-9.50359e-07
1.22463e-07
-9.88197e-07
1.22293e-07
-1.02513e-06
1.22093e-07
-1.06184e-06
1.21586e-07
-1.09903e-06
1.20902e-07
-1.13615e-06
1.20395e-07
-1.1726e-06
1.20013e-07
-1.20861e-06
1.19548e-07
-1.24429e-06
1.19025e-07
-1.27967e-06
1.18471e-07
-1.31478e-06
1.179e-07
-1.34963e-06
1.17315e-07
-1.38424e-06
1.16714e-07
-1.41862e-06
1.16098e-07
-1.45278e-06
1.15464e-07
-1.48672e-06
1.14809e-07
-1.52044e-06
1.14132e-07
-1.55393e-06
1.1343e-07
-1.58718e-06
1.12698e-07
-1.62019e-06
1.11932e-07
-1.65293e-06
1.11127e-07
-1.6854e-06
1.10279e-07
-1.71758e-06
1.09381e-07
-1.74944e-06
1.08428e-07
-1.78098e-06
1.07415e-07
-1.81216e-06
1.06336e-07
-1.84297e-06
1.05186e-07
-1.87337e-06
1.03958e-07
-1.90335e-06
1.02648e-07
-1.93287e-06
1.01252e-07
-1.96191e-06
9.97633e-08
-1.99043e-06
9.81783e-08
-2.0184e-06
9.64927e-08
-2.0458e-06
9.47023e-08
-2.07258e-06
9.28035e-08
-2.09872e-06
9.07929e-08
-2.12418e-06
8.86675e-08
-2.14892e-06
8.64243e-08
-2.1729e-06
8.40607e-08
-2.19609e-06
8.15743e-08
-2.21845e-06
7.89629e-08
-2.23995e-06
7.62246e-08
-2.26053e-06
7.33578e-08
-2.28017e-06
7.03612e-08
-2.29882e-06
6.72341e-08
-2.31645e-06
6.39757e-08
-2.33301e-06
6.05854e-08
-2.34846e-06
5.70625e-08
-2.36276e-06
5.3407e-08
-2.37589e-06
4.96187e-08
-2.38778e-06
4.56979e-08
-2.39843e-06
4.1645e-08
-2.40778e-06
3.74615e-08
-2.4158e-06
3.31488e-08
-2.42247e-06
2.87098e-08
-2.42777e-06
2.41485e-08
-2.43166e-06
1.94707e-08
-2.43415e-06
1.46848e-08
-2.43522e-06
9.80422e-09
-2.43487e-06
4.85008e-09
-2.43306e-06
-1.5559e-10
-2.42973e-06
-5.20503e-09
-2.4248e-06
-1.03193e-08
-2.41823e-06
-1.55139e-08
-2.40998e-06
-2.07809e-08
-2.40002e-06
-2.611e-08
-2.38832e-06
-3.14926e-08
-2.37488e-06
-3.69188e-08
-2.35967e-06
-4.23786e-08
-2.34268e-06
-4.78606e-08
-2.32393e-06
-5.33534e-08
-2.30339e-06
-5.88451e-08
-2.28109e-06
-6.43232e-08
-2.25703e-06
-6.97755e-08
-2.23123e-06
-7.51883e-08
-2.2037e-06
-8.05482e-08
-2.17446e-06
-8.58401e-08
-2.14356e-06
-9.10499e-08
-2.11101e-06
-9.61614e-08
-2.07687e-06
-1.0116e-07
-2.04117e-06
-1.06029e-07
-2.00396e-06
-1.10755e-07
-1.9653e-06
-1.15319e-07
-1.92525e-06
-1.19709e-07
-1.88387e-06
-1.23909e-07
-1.84122e-06
-1.27906e-07
-1.79739e-06
-1.31685e-07
-1.75244e-06
-1.35233e-07
-1.70645e-06
-1.38538e-07
-1.6595e-06
-1.41595e-07
-1.61169e-06
-1.44408e-07
-1.5631e-06
-1.46976e-07
-1.51381e-06
-1.49273e-07
-1.46392e-06
-1.51297e-07
-1.41353e-06
-1.5306e-07
-1.36271e-06
-1.54558e-07
-1.31157e-06
-1.55778e-07
-1.26018e-06
-1.56714e-07
-1.20864e-06
-1.57363e-07
-1.15705e-06
-1.57723e-07
-1.10548e-06
-1.57796e-07
-1.05404e-06
-1.57585e-07
-1.0028e-06
-1.57097e-07
-9.51848e-07
-1.5634e-07
-9.01251e-07
-1.55322e-07
-8.5108e-07
-1.54052e-07
-8.01397e-07
-1.52541e-07
-7.52264e-07
-1.50811e-07
-7.03737e-07
-1.48889e-07
-6.55869e-07
-1.46809e-07
-6.08698e-07
-1.44599e-07
-5.62256e-07
-1.42279e-07
-5.1656e-07
-1.39874e-07
-4.71626e-07
-1.37405e-07
-4.27454e-07
-1.34903e-07
-3.84038e-07
-1.32392e-07
-3.4136e-07
-1.29901e-07
-2.99396e-07
-1.27458e-07
-2.58105e-07
-1.25099e-07
-2.17442e-07
-1.22852e-07
-1.77345e-07
-1.20752e-07
-1.37748e-07
-1.18829e-07
-9.85629e-08
-1.17129e-07
-5.96988e-08
-1.1568e-07
-2.10462e-08
-1.14519e-07
1.74973e-08
-1.13673e-07
5.6048e-08
-1.1318e-07
9.47563e-08
-1.13078e-07
1.33809e-07
-1.13415e-07
1.73404e-07
-1.14198e-07
2.13753e-07
-1.1545e-07
2.5506e-07
-1.17207e-07
2.97564e-07
-1.1948e-07
3.41568e-07
-1.22248e-07
3.87337e-07
-1.2559e-07
4.35021e-07
-1.29658e-07
4.84743e-07
-1.34522e-07
5.3663e-07
-1.40138e-07
5.9079e-07
-1.46383e-07
6.47293e-07
-1.53072e-07
7.0613e-07
-1.59963e-07
7.67178e-07
-1.66724e-07
8.30158e-07
-1.72842e-07
8.94545e-07
-1.77483e-07
9.5946e-07
-1.79027e-07
1.02362e-06
-1.748e-07
1.08552e-06
-1.57659e-07
-1.12345e-07
1.15118e-06
-1.2244e-08
-7.03821e-09
-2.79129e-08
1.15333e-08
-4.45297e-08
2.61135e-08
-6.17256e-08
3.85068e-08
-7.9524e-08
4.94734e-08
-9.80786e-08
5.92513e-08
-1.1758e-07
6.79258e-08
-1.38198e-07
7.55601e-08
-1.60048e-07
8.22465e-08
-1.83181e-07
8.81107e-08
-2.07599e-07
9.32981e-08
-2.3327e-07
9.79569e-08
-2.60144e-07
1.02224e-07
-2.88171e-07
1.06217e-07
-3.17293e-07
1.10034e-07
-3.47464e-07
1.13751e-07
-3.78624e-07
1.17424e-07
-4.10717e-07
1.2109e-07
-4.43665e-07
1.24768e-07
-4.77379e-07
1.28455e-07
-5.11734e-07
1.32123e-07
-5.46586e-07
1.35714e-07
-5.81772e-07
1.39143e-07
-6.17146e-07
1.42308e-07
-6.52604e-07
1.45107e-07
-6.88115e-07
1.47464e-07
-7.23654e-07
1.49394e-07
-7.58998e-07
1.51022e-07
-7.93884e-07
1.52437e-07
-8.28131e-07
1.53634e-07
-8.61645e-07
1.54557e-07
-8.94624e-07
1.5511e-07
-9.27446e-07
1.55283e-07
-9.60297e-07
1.55141e-07
-9.92976e-07
1.5477e-07
-1.02558e-06
1.54187e-07
-1.05818e-06
1.53496e-07
-1.09061e-06
1.52824e-07
-1.12278e-06
1.52181e-07
-1.15475e-06
1.51517e-07
-1.18655e-06
1.50826e-07
-1.2182e-06
1.50115e-07
-1.24969e-06
1.49391e-07
-1.28103e-06
1.48654e-07
-1.31222e-06
1.47906e-07
-1.34326e-06
1.47142e-07
-1.37416e-06
1.46358e-07
-1.4049e-06
1.45552e-07
-1.43549e-06
1.44717e-07
-1.46591e-06
1.43848e-07
-1.49615e-06
1.42939e-07
-1.5262e-06
1.41984e-07
-1.55605e-06
1.40976e-07
-1.58568e-06
1.39908e-07
-1.61507e-06
1.38773e-07
-1.64421e-06
1.37563e-07
-1.67307e-06
1.36273e-07
-1.70162e-06
1.34894e-07
-1.72986e-06
1.3342e-07
-1.75775e-06
1.31844e-07
-1.78526e-06
1.3016e-07
-1.81237e-06
1.28361e-07
-1.83905e-06
1.26441e-07
-1.86527e-06
1.24395e-07
-1.89099e-06
1.22217e-07
-1.91619e-06
1.19902e-07
-1.94083e-06
1.17446e-07
-1.96488e-06
1.14844e-07
-1.98831e-06
1.12092e-07
-2.01107e-06
1.09187e-07
-2.03313e-06
1.06126e-07
-2.05446e-06
1.02904e-07
-2.07502e-06
9.95202e-08
-2.09476e-06
9.59715e-08
-2.11366e-06
9.22559e-08
-2.13167e-06
8.8372e-08
-2.14875e-06
8.43186e-08
-2.16486e-06
8.00949e-08
-2.17998e-06
7.57003e-08
-2.19405e-06
7.11345e-08
-2.20703e-06
6.63978e-08
-2.2189e-06
6.14906e-08
-2.22961e-06
5.64142e-08
-2.23913e-06
5.11701e-08
-2.24743e-06
4.57608e-08
-2.25446e-06
4.01898e-08
-2.26021e-06
3.44616e-08
-2.26464e-06
2.85821e-08
-2.26772e-06
2.25589e-08
-2.26943e-06
1.64016e-08
-2.26974e-06
1.01218e-08
-2.26862e-06
3.73332e-09
-2.26602e-06
-2.75288e-09
-2.26189e-06
-9.33554e-09
-2.25618e-06
-1.60232e-08
-2.24888e-06
-2.28182e-08
-2.23994e-06
-2.97116e-08
-2.22936e-06
-3.66906e-08
-2.21711e-06
-4.37424e-08
-2.20317e-06
-5.0853e-08
-2.18753e-06
-5.80083e-08
-2.17019e-06
-6.5193e-08
-2.15115e-06
-7.23918e-08
-2.13039e-06
-7.95885e-08
-2.10793e-06
-8.67668e-08
-2.08378e-06
-9.39095e-08
-2.05796e-06
-1.00999e-07
-2.03047e-06
-1.08016e-07
-2.00135e-06
-1.14942e-07
-1.97063e-06
-1.21758e-07
-1.93833e-06
-1.28442e-07
-1.9045e-06
-1.34974e-07
-1.86917e-06
-1.41334e-07
-1.83241e-06
-1.47502e-07
-1.79426e-06
-1.53456e-07
-1.75477e-06
-1.59177e-07
-1.71402e-06