/*--------------------------------*- C++ -*----------------------------------*\
  =========                 |
  \\      /  F ield         | OpenFOAM: The Open Source CFD Toolbox
   \\    /   O peration     | Website:  https://openfoam.org
    \\  /    A nd           | Version:  11
     \\/     M anipulation  |
\*---------------------------------------------------------------------------*/
FoamFile
{
    format      ascii;
    class       volScalarField::Internal;
    location    "200";
    object      tmp<kEpsilon:G>;
}
// * * * * * * * * * * * * * * * * * * * * * * * * * * * * * * * * * * * * * //

dimensions      [0 2 -3 0 0 0 0];

value           nonuniform List<scalar> 
12225
(
0
0
0
0
0
0
0
0
0
0
0
0
0
0
0
0
0
0
947.066
499.276
262.426
277.618
379.803
495.345
604.964
715.415
802.503
888.848
950.191
1009.34
1048.98
1086.29
1113.95
1133.27
1171.33
1145.43
86.0781
123.082
55.4854
17.2167
5.17975
4.39491
8.7959
16.6834
26.606
38.3827
50.8906
64.088
77.5368
90.4457
104.111
115.59
130.136
136.58
5.16943
1.72721
0.642801
0.702595
0.465973
0.185618
0.0272096
0.189498
0.791095
1.88215
3.44633
5.42528
7.84025
10.4332
13.5115
16.4285
19.9937
22.919
0.228996
0.132278
0.147926
0.313812
0.425635
0.405539
0.288122
0.152129
0.0557935
0.0243625
0.0745121
0.214005
0.452248
0.773389
1.20566
1.68783
2.28253
2.86495
0.178055
0.187879
0.265149
0.319926
0.32203
0.316532
0.288441
0.237156
0.180201
0.12484
0.0777527
0.0432352
0.0261043
0.0287781
0.0537696
0.100366
0.166526
0.246838
0.127219
0.210107
0.230406
0.212282
0.211427
0.229496
0.237114
0.225634
0.205855
0.181694
0.155686
0.128572
0.103594
0.082123
0.0660756
0.0574006
0.0563475
0.0622756
0.0976964
0.147831
0.159051
0.156505
0.166772
0.187018
0.199154
0.198613
0.192813
0.184515
0.174367
0.162153
0.149691
0.137749
0.128004
0.121711
0.12093
0.123471
0.0742242
0.104042
0.121588
0.129837
0.141243
0.156899
0.167904
0.171147
0.17091
0.169464
0.166971
0.163379
0.159478
0.156084
0.154257
0.154883
0.159572
0.165996
0.0562296
0.0772525
0.0968901
0.108338
0.118845
0.131645
0.141942
0.147057
0.149356
0.150823
0.151805
0.152264
0.152813
0.153982
0.156614
0.16099
0.168394
0.176196
0.0424719
0.0582987
0.076859
0.0894217
0.099794
0.111099
0.120744
0.126652
0.130144
0.132857
0.135305
0.137547
0.140019
0.143119
0.147404
0.152898
0.160339
0.167578
0.0325355
0.0451314
0.0620135
0.075037
0.0854186
0.0957209
0.10468
0.110796
0.114813
0.118025
0.120998
0.123861
0.126933
0.130507
0.134935
0.140122
0.146487
0.152311
0.0246435
0.0347829
0.0499056
0.0630082
0.0734281
0.0830556
0.091467
0.0976326
0.101944
0.105384
0.108509
0.111504
0.114599
0.118008
0.121934
0.126251
0.131188
0.135488
0.0176587
0.0257727
0.0389555
0.0515615
0.0618923
0.0710067
0.0789239
0.0850413
0.0895309
0.0930787
0.0961857
0.0990676
0.101894
0.104806
0.107914
0.111091
0.114477
0.117221
0.0117279
0.0182928
0.0296395
0.0413813
0.0514007
0.0600493
0.0675006
0.0734604
0.0779884
0.0815306
0.0844985
0.0871109
0.0895014
0.0917617
0.0939551
0.0959833
0.0979588
0.0993665
0.00694972
0.0123464
0.0220677
0.0327696
0.0422933
0.0504877
0.0574946
0.0631952
0.0676108
0.0710241
0.0737495
0.0759921
0.0778691
0.0794536
0.0807957
0.0818458
0.0827064
0.0831306
0.0034087
0.00796349
0.0163747
0.0260543
0.0349823
0.0427107
0.0492789
0.0546389
0.0588066
0.061968
0.0643643
0.06618
0.0675317
0.0684951
0.0691284
0.0694305
0.0694891
0.0692625
0.00121686
0.00522836
0.0127272
0.0215746
0.0298993
0.037122
0.0432098
0.0481384
0.0519255
0.0547124
0.0566992
0.0580571
0.0589078
0.0593378
0.0594178
0.0591858
0.058703
0.0580758
0.000668624
0.00447371
0.0116205
0.0200808
0.0279948
0.0347651
0.0403727
0.0448124
0.0481051
0.0503901
0.0518704
0.0527244
0.0530818
0.0530405
0.0526804
0.0520684
0.0512279
0.050379
0.00202645
0.00607933
0.0136874
0.0224279
0.0302301
0.0366763
0.0419126
0.0459292
0.0487194
0.0504587
0.0514041
0.0517598
0.0516608
0.0512095
0.0504898
0.0495788
0.0484757
0.0474371
0.00470265
0.0094192
0.0181563
0.0275406
0.0352215
0.0412777
0.0461574
0.0497851
0.0520926
0.0533247
0.0538075
0.0537528
0.053284
0.0525083
0.0515165
0.0503921
0.0491165
0.0479519
0.00868807
0.0148618
0.0252871
0.0352461
0.0427812
0.0485603
0.0530678
0.0560693
0.0576126
0.0581848
0.058184
0.0577586
0.0569749
0.055935
0.0547292
0.0534396
0.0520256
0.050757
0.0139549
0.0239029
0.0362086
0.0444527
0.0509147
0.0572677
0.0624214
0.0650719
0.0656308
0.0652607
0.0645347
0.0635192
0.062221
0.0607517
0.0591838
0.0575899
0.0558943
0.0543381
0.0214238
0.042178
0.0593286
0.0605794
0.0598776
0.0639493
0.0699101
0.0737545
0.0750128
0.0750115
0.0742592
0.0727567
0.0705835
0.0680161
0.0651914
0.0622656
0.0591631
0.0562441
0.0431854
0.0754091
0.093767
0.105025
0.0975197
0.090546
0.0880102
0.0867438
0.0852501
0.083453
0.0805533
0.0761052
0.0702789
0.0637129
0.0568232
0.0500905
0.0436741
0.0380591
0.080086
0.213425
0.0681535
0.0791234
0.167928
0.215385
0.214731
0.189886
0.158725
0.1281
0.098962
0.0725993
0.0506811
0.0349195
0.026394
0.0258733
0.0334679
0.0490943
0.667495
0.126972
0.315734
0.505503
0.373185
0.295618
0.229545
0.141663
0.0605516
0.0116419
0.0105992
0.0682087
0.189201
0.374977
0.620549
0.923984
1.27145
1.66083
32.2301
70.9022
43.2292
18.261
7.06668
2.67133
1.11393
1.00815
1.81682
3.28556
5.25823
7.63559
10.2756
13.1586
16.1301
19.2261
22.2428
25.2883
455.62
257.636
100.996
70.5624
91.6365
128.071
167.963
206.006
241.15
273.9
303.024
329.702
353.017
374.43
392.968
410.45
425.839
440.912
0
0
0
0
0
0
0
0
0
0
0
0
0
0
0
0
0
0
0
0
0
0
0
0
0
0
0
0
0
0
0
0
0
0
0
0
0
0
0
0
0
0
0
0
0
0
0
0
0
0
0
0
11.6206
12.3261
13.061
14.5256
15.6795
17.1626
18.6309
20.2251
21.8824
23.6326
25.4627
27.38
29.3815
31.4712
33.6477
35.9147
38.2709
40.7201
43.2607
45.8963
48.6251
51.4507
54.3703
57.3875
60.4989
63.7076
67.0094
70.4071
73.8955
77.4771
81.1456
84.9028
88.7414
92.6627
96.6581
100.728
104.864
109.064
113.318
117.626
121.975
126.364
130.778
135.216
139.663
144.115
148.558
152.986
157.382
161.74
166.043
170.281
174.435
178.494
182.437
186.248
189.907
193.396
196.696
199.797
202.708
205.423
207.945
210.261
212.365
214.246
215.895
217.302
218.459
219.358
219.991
220.352
220.435
220.237
219.753
218.98
217.919
216.568
214.93
213.006
210.801
208.319
205.57
202.561
199.303
195.808
192.08
188.077
183.915
179.528
174.995
170.318
165.48
160.512
155.433
150.258
145.008
139.697
134.347
128.971
123.59
118.218
112.871
107.563
102.309
97.1261
92.0262
87.0212
82.1193
77.3273
72.6509
68.0949
63.6625
59.3561
55.1754
51.1204
47.1885
43.3768
39.6803
36.0938
32.6098
29.2205
25.9162
22.6872
19.5222
16.4096
13.3376
10.2942
7.27368
4.30268
1.67793
2.46032
5.30412
8.35174
11.5529
14.9104
18.4543
22.2113
26.204
30.4449
34.9314
39.6235
44.5217
49.167
54.1576
53.2445
0
0.00755988
0.0326891
0.0750198
0.162449
0.300561
0.480176
0.687549
0.908656
1.13373
1.35842
1.58213
1.80649
2.03417
2.26806
2.51039
2.76264
3.02551
3.29695
3.56982
3.83602
4.08708
4.29766
4.44079
4.56325
4.871
5.59586
5.96861
5.96171
5.89691
5.16366
4.49249
4.2222
4.59668
4.52649
4.82904
5.52269
5.58908
5.31094
5.1587
5.06694
4.96522
4.85573
4.73909
4.6174
4.49163
4.36276
4.23162
4.09909
3.96584
3.83259
3.69985
3.56826
3.43839
3.31094
3.18648
3.06577
2.94955
2.83872
2.73413
2.63679
2.54772
2.46812
2.39915
2.3421
2.29827
2.26903
2.25576
2.2599
2.2829
2.32622
2.39131
2.47961
2.59254
2.73145
2.89767
3.09236
3.31666
3.57156
3.85803
4.17675
4.52826
4.91277
5.33027
5.78009
6.26097
6.7706
7.30545
7.86031
8.42841
9.00228
9.57348
10.1315
10.6644
11.1517
11.6421
12.1315
12.6317
13.1448
13.672
14.213
14.7669
15.3323
15.9075
16.4908
17.0802
17.6733
18.2679
18.8614
19.4511
20.034
20.6072
21.1675
21.7116
22.2365
22.7389
23.2156
23.6641
24.0821
24.4674
24.8166
25.128
25.3952
25.6154
25.7893
25.927
26.0221
26.0713
26.0768
26.0394
25.96
25.8406
25.6827
25.4893
25.2627
25.007
24.726
24.4236
24.103
23.7683
23.4241
23.0748
22.7252
22.379
22.0401
21.712
21.3989
21.1044
20.8324
20.5864
20.3704
20.1877
20.0423
19.9376
19.8781
19.8676
19.911
20.0131
20.1751
20.4014
20.7043
21.0924
21.5785
22.1901
22.9544
23.9491
25.2831
26.9056
28.7578
30.8503
33.1579
35.6528
38.3037
41.075
43.9125
46.8079
49.5977
53.2002
56.8187
69.0816
0
0.117897
0.264376
0.380977
0.505788
0.666202
0.876021
1.1308
1.41641
1.71798
2.02459
2.33034
2.63346
2.93461
3.2353
3.53652
3.838
4.13791
4.43175
4.71083
4.96272
5.1766
5.35235
5.48827
5.61352
5.77816
5.94386
5.98344
5.86871
5.6746
5.44788
5.28857
5.20792
5.18838
5.13515
5.188
5.32727
5.41591
5.42835
5.44791
5.52638
5.64067
5.78341
5.95064
6.14095
6.35306
6.58591
6.83841
7.10976
7.39919
7.70615
8.03005
8.37039
8.72668
9.09857
9.4856
9.88741
10.3035
10.7336
11.1773
11.6342
12.1038
12.5857
13.0796
13.5851
14.1018
14.6295
15.1677
15.716
16.2741
16.8416
17.4183
18.0037
18.5976
19.1998
19.8099
20.4276
21.0524
21.684
22.3218
22.9656
23.6145
24.2683
24.9261
25.5875
26.2516
26.918
27.5862
28.2568
28.9324
29.6194
30.3296
31.081
31.8935
32.7996
33.7362
34.697
35.674
36.6641
37.6655
38.6766
39.695
40.7178
41.7417
42.7632
43.7783
44.783
45.7729
46.7432
47.6891
48.6053
49.4865
50.327
51.1217
51.8646
52.5504
53.1737
53.7308
54.218
54.6312
54.9644
55.2128
55.3775
55.4498
55.4275
55.3271
55.144
54.8771
54.5302
54.1065
53.6088
53.0425
52.4118
51.7234
50.9834
50.2
49.3813
48.5355
47.6687
46.787
45.8982
45.0122
44.1389
43.2871
42.4637
41.6755
40.929
40.2313
39.588
39.0054
38.4888
38.044
37.6761
37.3906
37.192
37.0817
37.066
37.1548
37.3549
37.6779
38.1353
38.7529
39.5807
40.6203
41.8528
43.259
44.7817
46.4019
48.1583
50.0713
52.1279
54.2898
56.5325
58.82
61.1112
63.4535
65.827
69.39
74.1655
86.1272
0
0.346974
0.639017
0.849882
1.00668
1.16016
1.34753
1.57992
1.85352
2.15786
2.48116
2.81343
3.14753
3.47881
3.8039
4.11951
4.42146
4.70428
4.96087
5.18277
5.36195
5.4938
5.57952
5.63007
5.66912
5.73406
5.82718
5.88377
5.87602
5.82007
5.73706
5.69191
5.76753
5.94429
6.12463
6.37031
6.69293
7.00569
7.28204
7.56652
7.87726
8.21314
8.57278
8.95535
9.36064
9.78844
10.2384
10.71
11.2025
11.7154
12.2481
12.8001
13.3706
13.9593
14.5657
15.1893
15.8298
16.4868
17.16
17.849
18.5536
19.2734
20.0083
20.758
21.5224
22.3014
23.095
23.9029
24.7252
25.5618
26.4126
27.2778
28.1573
29.0512
29.9596
30.8826
31.8203
32.7725
33.7393
34.7207
35.7167
36.7274
37.7529
38.7935
39.8497
40.9222
42.0122
43.1216
44.254
45.4148
46.6122
47.8538
49.141
50.4684
51.8295
53.215
54.625
56.055
57.5008
58.9589
60.4258
61.8979
63.371
64.8404
66.3012
67.7481
69.1757
70.578
71.9487
73.2813
74.5686
75.8037
76.9792
78.0877
79.1218
80.0738
80.9371
81.7063
82.3761
82.941
83.3931
83.7249
83.9378
84.0282
83.9855
83.827
83.5542
83.1658
82.6685
82.0658
81.3624
80.5644
79.6786
78.713
77.6765
76.5799
75.4344
74.2505
73.0363
71.7998
70.5508
69.3031
68.0703
66.8652
65.6971
64.5761
63.5105
62.5101
61.5818
60.7346
59.9749
59.3075
58.7373
58.2754
57.9274
57.7027
57.6106
57.6595
57.8685
58.2534
58.8113
59.546
60.4559
61.539
62.8015
64.2267
65.7576
67.3627
69.0615
70.8703
72.7786
74.7596
76.7851
78.8331
80.8949
83.0814
85.4865
89.4268
94.9604
105.31
0
0.621205
1.06174
1.39084
1.59838
1.75482
1.91779
2.11039
2.33905
2.60108
2.8886
3.19194
3.50186
3.81036
4.11057
4.39623
4.66116
4.89912
5.104
5.27058
5.39631
5.48385
5.54264
5.58804
5.64155
5.72134
5.83167
5.95223
6.06178
6.15801
6.25423
6.37906
6.56249
6.80483
7.09313
7.43924
7.83903
8.25983
8.68591
9.12864
9.59715
10.093
10.6159
11.1653
11.7408
12.3423
12.9697
13.6228
14.3013
15.0048
15.7331
16.4858
17.2627
18.0634
18.8879
19.7358
20.607
21.5015
22.4191
23.3598
24.3237
25.3108
26.3211
27.3548
28.4122
29.4933
30.5984
31.7278
32.8815
34.06
35.2633
36.4917
37.7455
39.0249
40.3301
41.6613
43.0187
44.4022
45.812
47.2482
48.7109
50.2002
51.7164
53.26
54.8315
56.4319
58.0627
59.7257
61.4236
63.1599
64.9385
66.7605
68.6209
70.5102
72.4218
74.3553
76.3112
78.2864
80.2766
82.2774
84.2842
86.2919
88.2951
90.2877
92.2637
94.2166
96.1397
98.0256
99.8667
101.655
103.382
105.039
106.617
108.107
109.5
110.787
111.96
113.011
113.935
114.723
115.366
115.854
116.188
116.368
116.379
116.233
115.94
115.497
114.915
114.197
113.349
112.377
111.289
110.096
108.807
107.435
105.994
104.496
102.951
101.369
99.7625
98.1474
96.5408
94.9569
93.4091
91.9092
90.4689
89.0961
87.8006
86.5941
85.4867
84.4865
83.6049
82.8506
82.2326
81.7673
81.4621
81.3155
81.3337
81.5173
81.8704
82.3976
83.0992
83.9692
85.0069
86.1929
87.4808
88.8357
90.2635
91.7721
93.3631
95.0171
96.7223
98.4764
100.306
102.38
104.877
109.113
114.899
123.715
0
0.877994
1.43739
1.88448
2.15397
2.32557
2.47166
2.62355
2.79571
2.99285
3.21268
3.44876
3.69302
3.93733
4.17422
4.39708
4.6002
4.77894
4.93003
5.05223
5.14727
5.2207
5.28215
5.34446
5.42221
5.52804
5.66693
5.83341
6.01873
6.21937
6.43918
6.68834
6.9772
7.31132
7.6924
8.1243
8.60425
9.12076
9.66494
10.2368
10.8389
11.4727
12.1386
12.8365
13.5663
14.3279
15.1212
15.9463
16.8031
17.6917
18.6121
19.5643
20.5483
21.5643
22.6124
23.6927
24.8056
25.9513
27.1303
28.343
29.5899
30.8715
32.1882
33.5408
34.9298
36.3558
37.8194
39.3212
40.8618
42.4416
44.0612
45.7209
47.4211
49.1622
50.9443
52.7678
54.6327
56.5389
58.4863
60.4749
62.5044
64.5748
66.6859
68.8377
71.0303
73.2641
75.5394
77.8569
80.2171
82.6206
85.0671
87.5539
90.0746
92.6209
95.1874
97.7733
100.377
102.997
105.627
108.263
110.898
113.527
116.142
118.738
121.305
123.838
126.327
128.764
131.141
133.448
135.675
137.813
139.851
141.778
143.584
145.259
146.793
148.179
149.407
150.467
151.349
152.04
152.54
152.853
152.962
152.871
152.595
152.133
151.497
150.693
149.727
148.606
147.337
145.931
144.401
142.761
141.026
139.209
137.323
135.378
133.392
131.381
129.365
127.358
125.377
123.437
121.554
119.738
118.006
116.369
114.837
113.427
112.15
111.01
110.013
109.163
108.465
107.923
107.541
107.32
107.261
107.365
107.631
108.051
108.619
109.315
110.105
110.961
111.881
112.875
113.945
115.09
116.309
117.625
119.098
120.935
123.357
127.579
133.062
140.574
0
1.08531
1.71277
2.25065
2.57604
2.76728
2.90336
3.0203
3.13799
3.26707
3.41065
3.56669
3.73036
3.89583
4.05739
4.21008
4.35007
4.4749
4.58376
4.67773
4.76014
4.83666
4.91514
5.00495
5.11585
5.25607
5.43036
5.63888
5.87913
6.14933
6.4503
6.78559
7.15967
7.57649
8.03946
8.55138
9.11179
9.71626
10.36
11.041
11.759
12.5148
13.3086
14.1408
15.0115
15.921
16.8695
17.8572
18.8845
19.9518
21.0596
22.2083
23.3986
24.6311
25.9065
27.2256
28.5893
29.9987
31.4546
32.9582
34.5107
36.1131
37.7667
39.4726
41.232
43.046
44.9158
46.8423
48.8264
50.8691
52.9709
55.1326
57.3545
59.6369
61.9801
64.3841
66.8486
69.3733
71.9576
74.6009
77.3024
80.0612
82.8764
85.7468
88.6714
91.6492
94.6789
97.7592
100.888
104.064
107.283
110.541
113.829
117.142
120.473
123.819
127.178
130.544
133.914
137.28
140.636
143.974
147.286
150.564
153.8
156.984
160.108
163.162
166.137
169.021
171.804
174.474
177.021
179.433
181.696
183.801
185.738
187.496
189.064
190.431
191.583
192.508
193.203
193.672
193.902
193.888
193.646
193.178
192.497
191.613
190.531
189.259
187.803
186.176
184.39
182.463
180.409
178.244
175.982
173.634
171.221
168.763
166.281
163.794
161.321
158.881
156.49
154.168
151.929
149.786
147.747
145.823
144.02
142.347
140.808
139.41
138.153
137.043
136.079
135.263
134.593
134.071
133.69
133.445
133.324
133.315
133.388
133.529
133.735
134.018
134.388
134.853
135.432
136.168
137.147
138.594
140.73
144.631
149.397
155.699
0
1.22885
1.8623
2.44904
2.80932
3.01524
3.14365
3.23234
3.30406
3.37346
3.44809
3.53016
3.61867
3.71105
3.80435
3.89601
3.98427
4.06848
4.14923
4.2285
4.30964
4.39729
4.49718
4.61575
4.75957
4.93446
5.14454
5.39183
5.6767
5.99906
6.35942
6.75922
7.20066
7.68637
8.21904
8.80094
9.43281
10.1135
10.8411
11.614
12.4317
13.2943
14.202
15.1554
16.1549
17.2012
18.2949
19.4369
20.628
21.8691
23.1614
24.506
25.9041
27.3573
28.8669
30.4346
32.0621
33.7513
35.504
37.3221
39.2076
41.1625
43.1887
45.2882
47.4628
49.7143
52.0443
54.4545
56.946
59.52
62.1776
64.9193
67.7456
70.6567
73.6525
76.7326
79.8965
83.143
86.4708
89.8785
93.3642
96.9258
100.561
104.267
108.041
111.881
115.782
119.742
123.756
127.82
131.926
136.07
140.242
144.435
148.642
152.857
157.075
161.291
165.497
169.687
173.851
177.981
182.067
186.1
190.071
193.97
197.787
201.51
205.13
208.634
212.012
215.25
218.337
221.26
224.005
226.561
228.918
231.064
232.984
234.666
236.096
237.26
238.153
238.778
239.122
239.182
238.965
238.478
237.735
236.749
235.529
234.079
232.408
230.528
228.453
226.199
223.783
221.223
218.533
215.731
212.837
209.877
206.871
203.846
200.822
197.817
194.849
191.935
189.088
186.321
183.646
181.073
178.607
176.258
174.03
171.927
169.95
168.103
166.386
164.798
163.337
162.002
160.789
159.691
158.698
157.799
156.979
156.23
155.556
154.974
154.5
154.157
153.977
154.02
154.388
155.308
156.973
160.316
164.118
169.23
0
1.30908
1.88661
2.47444
2.84299
3.05183
3.17062
3.2363
3.27235
3.29562
3.31664
3.34096
3.37092
3.40698
3.44883
3.49604
3.54854
3.60686
3.67229
3.74691
3.8335
3.93567
4.05739
4.20309
4.37728
4.58418
4.8273
5.10915
5.43131
5.79486
6.20077
6.65027
7.14493
7.68671
8.27769
8.91994
9.61453
10.3619
11.1617
12.0137
12.9179
13.8746
14.8842
15.9477
17.0661
18.2403
19.472
20.7623
22.1131
23.5261
25.0032
26.5464
28.1579
29.8401
31.5956
33.4269
35.3369
37.3284
39.4043
41.5678
43.8217
46.1689
48.6125
51.1552
53.7997
56.5484
59.4036
62.3674
65.4415
68.6273
71.9258
75.3377
78.8633
82.5025
86.2548
90.119
94.0937
98.177
102.367
106.659
111.052
115.541
120.122
124.79
129.541
134.369
139.268
144.232
149.254
154.328
159.443
164.592
169.764
174.952
180.144
185.334
190.513
195.674
200.808
205.906
210.957
215.951
220.877
225.725
230.485
235.144
239.693
244.12
248.412
252.558
256.546
260.363
263.996
267.43
270.653
273.654
276.42
278.938
281.192
283.167
284.85
286.226
287.29
288.038
288.463
288.561
288.334
287.79
286.945
285.815
284.41
282.734
280.797
278.609
276.188
273.549
270.712
267.695
264.518
261.203
257.772
254.248
250.657
247.021
243.36
239.695
236.046
232.43
228.862
225.354
221.921
218.571
215.313
212.151
209.093
206.14
203.297
200.562
197.938
195.422
193.014
190.711
188.51
186.405
184.391
182.461
180.609
178.837
177.159
175.595
174.173
172.925
171.896
171.157
170.821
171.098
172.143
174.758
177.476
181.45
0
1.33455
1.80375
2.34961
2.69967
2.8972
3.00182
3.0477
3.05752
3.04876
3.03345
3.01925
3.01077
3.0107
3.02061
3.04179
3.07512
3.12179
3.18325
3.26139
3.35827
3.47668
3.61946
3.78983
3.99107
4.22642
4.49885
4.81092
5.16475
5.56209
6.00447
6.49344
7.03067
7.61801
8.25745
8.95097
9.69982
10.5056
11.3692
12.2914
13.2731
14.3152
15.4188
16.5855
17.817
19.1152
20.4825
21.9212
23.4339
25.0236
26.6931
28.4457
30.2847
32.2138
34.2367
36.3574
38.5799
40.9084
43.3472
45.9004
48.5722
51.3668
54.288
57.3397
60.5252
63.8478
67.3105
70.9155
74.665
78.5605
82.6029
86.7928
91.1299
95.6136
100.242
105.014
109.927
114.977
120.159
125.471
130.905
136.457
142.119
147.885
153.747
159.696
165.724
171.822
177.98
184.187
190.432
196.704
202.992
209.282
215.563
221.825
228.057
234.249
240.388
246.465
252.466
258.379
264.193
269.896
275.475
280.92
286.217
291.355
296.321
301.103
305.688
310.063
314.215
318.13
321.795
325.199
328.328
331.167
333.701
335.914
337.795
339.329
340.505
341.317
341.76
341.832
341.53
340.854
339.829
338.472
336.804
334.824
332.54
329.968
327.125
324.029
320.701
317.159
313.427
309.525
305.476
301.304
297.035
292.691
288.296
283.87
279.436
275.01
270.611
266.25
261.943
257.699
253.526
249.43
245.418
241.491
237.653
233.905
230.246
226.676
223.196
219.802
216.493
213.268
210.124
207.061
204.081
201.196
198.427
195.804
193.362
191.145
189.205
187.624
186.509
186.054
186.368
188.142
189.735
192.614
0
1.31866
1.64165
2.1126
2.42193
2.59489
2.67994
2.70734
2.69808
2.66909
2.63278
2.59773
2.56976
2.55264
2.54885
2.56038
2.58884
2.63572
2.70251
2.79077
2.90222
3.03886
3.20281
3.39648
3.62243
3.88327
4.18167
4.52016
4.90114
5.32678
5.79913
6.3202
6.89207
7.51696
8.19717
8.93522
9.73299
10.5928
11.5161
12.5048
13.5606
14.6854
15.8817
17.1518
18.4987
19.9255
21.4357
23.0331
24.7214
26.5049
28.3879
30.3749
32.4709
34.6808
37.0102
39.4643
42.0489
44.7695
47.632
50.6417
53.8043
57.1248
60.6084
64.2597
68.0829
72.0818
76.2597
80.6192
85.1625
89.8908
94.8048
99.9042
105.188
110.655
116.302
122.125
128.121
134.283
140.606
147.083
153.706
160.466
167.354
174.359
181.471
188.678
195.967
203.328
210.745
218.205
225.695
233.199
240.703
248.192
255.651
263.066
270.424
277.711
284.913
292.016
299.006
305.869
312.592
319.161
325.564
331.786
337.816
343.64
349.247
354.623
359.759
364.64
369.251
373.581
377.618
381.35
384.762
387.838
390.561
392.917
394.893
396.477
397.656
398.424
398.776
398.715
398.226
397.307
395.995
394.305
392.268
389.885
387.165
384.121
380.768
377.126
373.213
369.052
364.665
360.076
355.308
350.387
345.338
340.186
334.954
329.665
324.341
319.002
313.666
308.348
303.061
297.818
292.625
287.49
282.419
277.415
272.481
267.619
262.829
258.112
253.468
248.898
244.401
239.981
235.638
231.38
227.216
223.167
219.262
215.539
212.04
208.818
205.934
203.47
201.53
200.281
199.788
200.656
201.134
202.975
0
1.27674
1.43159
1.80707
2.06016
2.19815
2.25855
2.26741
2.24374
2.20332
2.15795
2.1159
2.08339
2.06452
2.06223
2.0787
2.11534
2.17347
2.25427
2.35893
2.48877
2.64533
2.83041
3.04601
3.29438
3.57791
3.89919
4.26087
4.66562
5.11603
5.61469
6.1642
6.76725
7.42667
8.14519
8.92592
9.77156
10.6861
11.6714
12.7305
13.8664
15.0821
16.3812
17.7679
19.2465
20.822
22.4994
24.284
26.1813
28.197
30.337
32.6077
35.0156
37.5677
40.2711
43.1329
46.1606
49.3613
52.7422
56.3102
60.0719
64.0337
68.2013
72.5801
77.1748
81.9893
87.027
92.2902
97.7807
103.499
109.445
115.616
122.012
128.627
135.458
142.499
149.742
157.181
164.807
172.608
180.575
188.695
196.956
205.342
213.841
222.436
231.112
239.851
248.637
257.454
266.284
275.108
283.908
292.665
301.362
309.982
318.507
326.921
335.207
343.348
351.329
359.134
366.748
374.156
381.344
388.299
395.006
401.453
407.628
413.518
419.11
424.394
429.357
433.986
438.271
442.201
445.76
448.932
451.702
454.053
455.975
457.457
458.489
459.066
459.188
458.852
458.045
456.761
455.045
452.9
450.375
447.471
444.193
440.554
436.569
432.257
427.639
422.739
417.582
412.192
406.594
400.813
394.877
388.809
382.635
376.379
370.065
363.713
357.343
350.971
344.612
338.277
331.975
325.716
319.502
313.342
307.236
301.188
295.199
289.272
283.408
277.611
271.883
266.23
260.659
255.181
249.817
244.59
239.539
234.708
230.148
225.917
222.08
218.719
215.93
213.852
212.515
212.451
211.855
212.718
0
1.22259
1.2028
1.4743
1.66289
1.75922
1.7915
1.78148
1.74604
1.69968
1.65332
1.61494
1.58988
1.58172
1.59287
1.62492
1.67903
1.75607
1.85685
1.98224
2.13332
2.31144
2.5182
2.75551
3.02557
3.33086
3.67413
4.05829
4.48645
4.96169
5.48728
6.06667
6.70342
7.40126
8.16408
8.99608
9.9007
10.8819
11.944
13.0915
14.3289
15.6615
17.0942
18.6333
20.2852
22.0567
23.9548
25.9868
28.16
30.4819
32.9606
35.6043
38.4217
41.4216
44.6132
48.0054
51.6072
55.4272
59.4739
63.7552
68.2787
73.0511
78.0785
83.3664
88.9191
94.7402
100.832
107.196
113.833
120.741
127.919
135.362
143.067
151.026
159.233
167.679
176.354
185.245
194.342
203.631
213.096
222.722
232.492
242.387
252.39
262.481
272.639
282.845
293.078
303.317
313.541
323.729
333.857
343.905
353.851
363.675
373.355
382.874
392.212
401.349
410.269
418.952
427.383
435.546
443.425
451.007
458.278
465.225
471.835
478.096
483.998
489.528
494.675
499.432
503.789
507.734
511.254
514.335
516.962
519.126
520.819
522.026
522.749
522.967
522.703
521.931
520.647
518.839
516.556
513.797
510.623
507.043
503.055
498.671
493.908
488.784
483.322
477.55
471.493
465.177
458.628
451.871
444.934
437.842
430.622
423.298
415.897
408.439
400.946
393.435
385.923
378.42
370.938
363.484
356.068
348.692
341.363
334.083
326.857
319.687
312.579
305.536
298.566
291.676
284.881
278.197
271.646
265.262
259.088
253.173
247.577
242.362
237.597
233.357
229.723
226.815
224.627
223.641
222.032
221.989
0
1.1676
0.979434
1.1491
1.27213
1.32453
1.32662
1.29723
1.25198
1.20381
1.16242
1.13457
1.12468
1.13538
1.1681
1.22356
1.30213
1.40407
1.52978
1.67988
1.85531
2.05739
2.2878
2.54863
2.84224
3.17159
3.53988
3.95064
4.40773
4.9151
5.47768
6.0995
6.78522
7.53959
8.36751
9.27403
10.2648
11.3457
12.5234
13.8045
15.196
16.7052
18.3398
20.1083
22.0191
24.0816
26.305
28.6988
31.2724
34.0356
36.9985
40.1718
43.5662
47.1927
51.0618
55.1841
59.5697
64.2281
69.1682
74.3982
79.9253
85.7559
91.8954
98.3478
105.116
112.202
119.606
127.327
135.363
143.71
152.362
161.313
170.554
180.076
189.867
199.915
210.205
220.722
231.451
242.372
253.467
264.717
276.099
287.592
299.172
310.817
322.502
334.204
345.899
357.561
369.166
380.689
392.106
403.39
414.518
425.466
436.213
446.735
457.011
467.02
476.743
486.161
495.255
504.008
512.406
520.433
528.078
535.327
542.167
548.59
554.587
560.149
565.268
569.937
574.147
577.89
581.152
583.924
586.193
587.954
589.197
589.919
590.102
589.767
588.899
587.488
585.527
583.003
579.965
576.407
572.397
567.961
563.09
557.794
552.09
545.997
539.542
532.753
525.66
518.287
510.661
502.81
494.76
486.538
478.171
469.686
461.109
452.462
443.769
435.048
426.315
417.585
408.868
400.174
391.511
382.887
374.306
365.775
357.297
348.88
340.528
332.249
324.054
315.955
307.971
300.123
292.441
284.958
277.72
270.783
264.207
258.055
252.39
247.294
242.833
239.107
236.085
234.209
231.664
230.802
0
1.11995
0.777863
0.85542
0.916539
0.926156
0.899187
0.851906
0.798994
0.752392
0.720646
0.709116
0.720707
0.756642
0.817112
0.901787
1.01022
1.14206
1.29738
1.4767
1.68105
1.91199
2.17165
2.4627
2.78846
3.1526
3.55912
4.0125
4.51763
5.07993
5.70502
6.39914
7.1687
8.02046
8.96185
9.99988
11.1433
12.4006
13.7813
15.2951
16.9518
18.7619
20.7363
22.8858
25.2217
27.7558
30.4998
33.4655
36.6645
40.1089
43.811
47.7834
52.0386
56.5886
61.4448
66.6179
72.1178
77.9532
84.1317
90.6599
97.5431
104.785
112.388
120.354
128.681
137.367
146.41
155.804
165.542
175.616
186.016
196.73
207.746
219.049
230.622
242.45
254.512
266.79
279.261
291.906
304.699
317.619
330.639
343.734
356.879
370.046
383.21
396.34
409.409
422.388
435.252
447.973
460.525
472.878
485.006
496.885
508.49
519.797
530.784
541.43
551.714
561.617
571.118
580.201
588.851
597.056
604.803
612.081
618.878
625.188
631.005
636.322
641.134
645.437
649.223
652.487
655.213
657.403
659.04
660.131
660.669
660.624
660.042
658.89
657.173
654.888
652.026
648.572
644.567
640.003
634.953
629.467
623.527
617.141
610.323
603.098
595.494
587.543
579.274
570.715
561.893
552.834
543.566
534.116
524.513
514.784
504.955
495.053
485.099
475.114
465.114
455.116
445.13
435.17
425.242
415.357
405.52
395.741
386.024
376.385
366.825
357.356
347.987
338.737
329.628
320.681
311.915
303.381
295.128
287.215
279.705
272.663
266.167
260.277
255.048
250.555
246.751
244.051
240.67
239.101
0
1.0826
0.603508
0.602593
0.609193
0.580257
0.527186
0.465729
0.409954
0.370606
0.354654
0.365752
0.405142
0.472525
0.566816
0.686716
0.831161
0.999621
1.19233
1.41009
1.6545
1.92785
2.23325
2.57463
2.95661
3.38458
3.86438
4.4025
5.00614
5.6835
6.44304
7.29396
8.24585
9.30875
10.4932
11.8107
13.2743
14.8969
16.6919
18.6727
20.8533
23.248
25.8711
28.7362
31.8574
35.2484
38.9222
42.8925
47.1726
51.7759
56.7158
62.0053
67.6558
73.678
80.0809
86.8722
94.0579
101.643
109.629
118.018
126.811
136.004
145.595
155.577
165.945
176.689
187.8
199.267
211.076
223.213
235.663
248.407
261.428
274.707
288.221
301.95
315.869
329.956
344.185
358.532
372.971
387.474
402.013
416.561
431.091
445.574
459.979
474.275
488.433
502.426
516.226
529.806
543.139
556.194
568.946
581.369
593.439
605.133
616.429
627.306
637.745
647.727
657.23
666.238
674.737
682.719
690.175
697.092
703.461
709.278
714.542
719.247
723.391
726.972
729.984
732.426
734.278
735.562
736.248
736.356
735.856
734.791
733.119
730.853
727.997
724.554
720.52
715.875
710.649
704.829
698.489
691.715
684.474
676.775
668.63
660.068
651.121
641.823
632.206
622.297
612.124
601.713
591.091
580.288
569.332
558.253
547.077
535.831
524.539
513.221
501.895
490.579
479.285
468.025
456.811
445.651
434.554
423.529
412.585
401.726
390.966
380.319
369.798
359.426
349.228
339.231
329.475
319.993
310.838
302.064
293.736
285.937
278.708
272.121
266.213
261.04
256.541
253.112
248.982
246.843
0
1.04733
0.463477
0.406289
0.373142
0.317427
0.24915
0.183882
0.135084
0.112097
0.120034
0.160713
0.233788
0.33783
0.471033
0.631804
0.819244
1.03344
1.27558
1.54789
1.8535
2.19656
2.58253
3.01822
3.51175
4.07167
4.70723
5.42857
6.2471
7.17552
8.22743
9.41824
10.7629
12.277
13.9778
15.8828
18.0107
20.3799
23.0081
25.9126
29.1108
32.62
36.4569
40.6361
45.1717
50.0769
55.3649
61.0454
67.1311
73.6334
80.5622
87.9248
95.7264
103.97
112.655
121.782
131.348
141.347
151.773
162.618
173.872
185.524
197.562
209.972
222.739
235.847
249.277
263.014
277.037
291.327
305.862
320.621
335.582
350.721
366.015
381.439
396.967
412.575
428.237
443.926
459.616
475.28
490.889
506.414
521.827
537.099
552.204
567.112
581.795
596.226
610.38
624.233
637.757
650.927
663.715
676.098
688.052
699.558
710.596
721.147
731.198
740.727
749.717
758.151
766.023
773.329
780.057
786.195
791.733
796.671
801.008
804.744
807.878
810.404
812.322
813.634
814.307
814.388
813.808
812.668
810.898
808.514
805.517
801.907
797.695
792.893
787.499
781.497
774.891
767.672
759.897
751.697
743.031
733.9
724.319
714.32
703.939
693.212
682.172
670.847
659.261
647.442
635.418
623.217
610.87
598.407
585.858
573.247
560.6
547.937
535.279
522.641
510.041
497.49
485.001
472.583
460.245
447.998
435.854
423.841
411.958
400.22
388.645
377.259
366.092
355.186
344.552
334.243
324.31
314.807
305.794
297.326
289.472
282.295
275.815
270.072
264.988
260.951
256.211
253.712
0
1.00823
0.360438
0.276353
0.225579
0.161336
0.0941537
0.0395262
0.00974265
0.0123664
0.050672
0.125083
0.234681
0.378154
0.554301
0.762606
1.00396
1.28118
1.59882
1.96278
2.37972
2.85782
3.40783
4.043
4.7781
5.62898
6.61236
7.74577
9.04928
10.5459
12.2598
14.2157
16.4364
18.9442
21.7623
24.9148
28.4256
32.3173
36.6091
41.3164
46.4532
52.0335
58.0692
64.5708
71.5454
78.9998
86.9338
95.3445
104.24
113.619
123.477
133.807
144.597
155.837
167.513
179.609
192.111
205
218.258
231.868
245.809
260.064
274.611
289.431
304.502
319.803
335.314
351.015
366.884
382.9
399.04
415.283
431.608
447.991
464.411
480.844
497.267
513.657