/*--------------------------------*- C++ -*----------------------------------*\
  =========                 |
  \\      /  F ield         | OpenFOAM: The Open Source CFD Toolbox
   \\    /   O peration     | Website:  https://openfoam.org
    \\  /    A nd           | Version:  11
     \\/     M anipulation  |
\*---------------------------------------------------------------------------*/
FoamFile
{
    format      ascii;
    class       volVectorField;
    location    "200";
    object      U;
}
// * * * * * * * * * * * * * * * * * * * * * * * * * * * * * * * * * * * * * //

dimensions      [0 1 -1 0 0 0 0];

internalField   nonuniform List<vector> 
12225
(
(9.85697 -0.886445 0)
(9.66664 -0.740745 0)
(9.4557 -0.429481 0)
(9.22451 -0.222211 0)
(9.00645 -0.106454 0)
(8.81432 -0.0458636 0)
(8.64739 -0.0151698 0)
(8.50518 0.000457334 0)
(8.38346 0.00839671 0)
(8.28066 0.0122888 0)
(8.19216 0.0140099 0)
(8.11589 0.0150299 0)
(8.04898 0.0154387 0)
(7.98977 0.0156368 0)
(7.93617 0.0156648 0)
(7.88946 0.0156283 0)
(7.83426 0.0171861 0)
(7.82453 0.0123945 0)
(10.0545 0.227567 0)
(10.121 0.326913 0)
(10.1196 0.261574 0)
(10.0856 0.186545 0)
(10.0434 0.134674 0)
(9.9967 0.101122 0)
(9.94398 0.0792977 0)
(9.8852 0.0645795 0)
(9.82383 0.0542781 0)
(9.76127 0.046698 0)
(9.69977 0.0409417 0)
(9.63989 0.0364036 0)
(9.58253 0.0327703 0)
(9.52805 0.0299443 0)
(9.47607 0.0275624 0)
(9.42835 0.0268762 0)
(9.38043 0.0240085 0)
(9.3466 0.0337423 0)
(10.0035 0.0579193 0)
(10.0303 0.0560099 0)
(10.0561 0.0337851 0)
(10.0703 0.0329041 0)
(10.077 0.040656 0)
(10.0778 0.046557 0)
(10.0725 0.049375 0)
(10.0613 0.0503255 0)
(10.0461 0.0502313 0)
(10.0276 0.0495282 0)
(10.0071 0.0485001 0)
(9.9848 0.0473596 0)
(9.96161 0.0462096 0)
(9.93788 0.0451975 0)
(9.91385 0.0442155 0)
(9.89032 0.0439992 0)
(9.86681 0.0434528 0)
(9.845 0.0462001 0)
(9.99779 0.0110548 0)
(10.011 0.0266122 0)
(10.035 0.0371575 0)
(10.0525 0.0480957 0)
(10.0643 0.0554661 0)
(10.0734 0.0582025 0)
(10.0795 0.0583781 0)
(10.0823 0.0576438 0)
(10.0827 0.0566058 0)
(10.0811 0.0554248 0)
(10.078 0.0541746 0)
(10.0736 0.0529769 0)
(10.0682 0.0518331 0)
(10.062 0.0508588 0)
(10.0551 0.0499716 0)
(10.0481 0.0496011 0)
(10.0409 0.0491442 0)
(10.034 0.0499497 0)
(9.99935 0.00719969 0)
(10.009 0.0316597 0)
(10.0275 0.0439313 0)
(10.0418 0.0499359 0)
(10.0528 0.0536295 0)
(10.0628 0.0552596 0)
(10.0715 0.0555469 0)
(10.0783 0.0552669 0)
(10.0834 0.0547369 0)
(10.0872 0.0540516 0)
(10.0899 0.0532688 0)
(10.0918 0.0524879 0)
(10.0929 0.0517307 0)
(10.0935 0.0510838 0)
(10.0936 0.0505168 0)
(10.0935 0.050247 0)
(10.0933 0.0499941 0)
(10.0933 0.0501271 0)
(10.0003 0.00918046 0)
(10.0083 0.0311764 0)
(10.0227 0.0409547 0)
(10.0349 0.0454087 0)
(10.045 0.0490591 0)
(10.0547 0.0514007 0)
(10.0637 0.0523903 0)
(10.0713 0.0526348 0)
(10.0778 0.0525162 0)
(10.0833 0.0521741 0)
(10.0881 0.0516877 0)
(10.0923 0.0511491 0)
(10.0959 0.0505998 0)
(10.0991 0.0501036 0)
(10.1019 0.0496567 0)
(10.1045 0.0493547 0)
(10.1072 0.0490654 0)
(10.11 0.0487894 0)
(10.0005 0.00894738 0)
(10.0071 0.0270931 0)
(10.0191 0.0364259 0)
(10.0302 0.0414088 0)
(10.0396 0.0454385 0)
(10.0486 0.0481112 0)
(10.0572 0.0493896 0)
(10.0649 0.0498714 0)
(10.0716 0.0499608 0)
(10.0777 0.0498057 0)
(10.0832 0.049487 0)
(10.0882 0.0490859 0)
(10.0928 0.0486509 0)
(10.097 0.0482276 0)
(10.101 0.0478207 0)
(10.1049 0.0474625 0)
(10.1087 0.0470736 0)
(10.1126 0.0465561 0)
(10.0004 0.00791907 0)
(10.006 0.0233883 0)
(10.0161 0.0327503 0)
(10.0263 0.0381223 0)
(10.0351 0.0421241 0)
(10.0436 0.0448151 0)
(10.0517 0.046236 0)
(10.0591 0.0468823 0)
(10.0659 0.0471209 0)
(10.072 0.0470987 0)
(10.0778 0.046897 0)
(10.0831 0.046589 0)
(10.088 0.0462249 0)
(10.0927 0.0458381 0)
(10.0972 0.0454342 0)
(10.1016 0.0450143 0)
(10.1059 0.0445201 0)
(10.1103 0.0438509 0)
(10.0004 0.0069639 0)
(10.0051 0.0204374 0)
(10.0137 0.0294706 0)
(10.0229 0.034885 0)
(10.0312 0.0387433 0)
(10.0391 0.0414135 0)
(10.0468 0.0429558 0)
(10.054 0.0437427 0)
(10.0606 0.044099 0)
(10.0667 0.0441768 0)
(10.0724 0.0440593 0)
(10.0778 0.0438148 0)
(10.0829 0.0434914 0)
(10.0878 0.043116 0)
(10.0924 0.0426928 0)
(10.097 0.0422108 0)
(10.1015 0.0416231 0)
(10.1059 0.0408559 0)
(10.0004 0.00613352 0)
(10.0043 0.0178734 0)
(10.0116 0.026295 0)
(10.0199 0.031608 0)
(10.0276 0.0353408 0)
(10.0351 0.037976 0)
(10.0424 0.0395986 0)
(10.0493 0.040489 0)
(10.0557 0.0409327 0)
(10.0617 0.0410841 0)
(10.0673 0.0410271 0)
(10.0727 0.0408252 0)
(10.0778 0.0405231 0)
(10.0827 0.0401448 0)
(10.0874 0.0396933 0)
(10.092 0.0391559 0)
(10.0965 0.0384956 0)
(10.1009 0.0376685 0)
(10.0003 0.005374 0)
(10.0037 0.0155652 0)
(10.0099 0.0232588 0)
(10.0173 0.0283749 0)
(10.0245 0.0319661 0)
(10.0315 0.0345252 0)
(10.0384 0.0361733 0)
(10.0449 0.0371281 0)
(10.0511 0.0376326 0)
(10.057 0.0378362 0)
(10.0625 0.0378217 0)
(10.0678 0.0376477 0)
(10.0729 0.0373558 0)
(10.0777 0.0369681 0)
(10.0824 0.0364889 0)
(10.0869 0.0359075 0)
(10.0913 0.0351979 0)
(10.0957 0.0343399 0)
(10.0003 0.00470916 0)
(10.0032 0.013625 0)
(10.0086 0.0206139 0)
(10.0152 0.0254653 0)
(10.0219 0.028891 0)
(10.0285 0.0313448 0)
(10.035 0.0329741 0)
(10.0413 0.0339554 0)
(10.0473 0.0344932 0)
(10.053 0.0347271 0)
(10.0584 0.0347374 0)
(10.0636 0.0345787 0)
(10.0686 0.0342899 0)
(10.0734 0.0338922 0)
(10.078 0.0333916 0)
(10.0824 0.0327821 0)
(10.0867 0.0320461 0)
(10.0909 0.0311818 0)
(10.0003 0.00409465 0)
(10.0028 0.0118566 0)
(10.0075 0.0181159 0)
(10.0134 0.0226262 0)
(10.0196 0.0258517 0)
(10.0259 0.0281747 0)
(10.032 0.0297523 0)
(10.0381 0.0307325 0)
(10.0438 0.0312848 0)
(10.0494 0.0315349 0)
(10.0547 0.0315596 0)
(10.0597 0.0314099 0)
(10.0646 0.0311217 0)
(10.0693 0.030716 0)
(10.0738 0.0302008 0)
(10.0781 0.0295753 0)
(10.0823 0.0288289 0)
(10.0863 0.0279733 0)
(10.0002 0.00345988 0)
(10.0024 0.0100186 0)
(10.0064 0.0154363 0)
(10.0117 0.0194805 0)
(10.0174 0.0224222 0)
(10.0232 0.0245544 0)
(10.029 0.0260292 0)
(10.0347 0.0269704 0)
(10.0403 0.0275117 0)
(10.0456 0.0277608 0)
(10.0507 0.0277881 0)
(10.0557 0.0276404 0)
(10.0604 0.0273503 0)
(10.0649 0.0269385 0)
(10.0693 0.0264155 0)
(10.0735 0.0257851 0)
(10.0776 0.0250435 0)
(10.0814 0.0242121 0)
(10.0002 0.00280078 0)
(10.002 0.00810932 0)
(10.0055 0.0125851 0)
(10.0101 0.0160332 0)
(10.0153 0.0185889 0)
(10.0206 0.0204546 0)
(10.026 0.0217621 0)
(10.0314 0.022612 0)
(10.0367 0.023105 0)
(10.0418 0.0233274 0)
(10.0467 0.0233401 0)
(10.0515 0.0231842 0)
(10.0561 0.022889 0)
(10.0605 0.0224742 0)
(10.0647 0.0219521 0)
(10.0688 0.0213306 0)
(10.0726 0.0206115 0)
(10.0764 0.0198217 0)
(10.0002 0.00211663 0)
(10.0017 0.00613074 0)
(10.0047 0.00957051 0)
(10.0087 0.0122888 0)
(10.0134 0.0143389 0)
(10.0183 0.015845 0)
(10.0233 0.0169059 0)
(10.0283 0.0175977 0)
(10.0333 0.0179919 0)
(10.0382 0.0181519 0)
(10.0429 0.0181259 0)
(10.0475 0.0179478 0)
(10.0519 0.0176422 0)
(10.0562 0.0172272 0)
(10.0602 0.0167156 0)
(10.0641 0.0161176 0)
(10.0678 0.0154381 0)
(10.0713 0.0147061 0)
(10.0002 0.00140436 0)
(10.0015 0.00406856 0)
(10.0041 0.00637597 0)
(10.0076 0.00822969 0)
(10.0118 0.00964309 0)
(10.0163 0.0106806 0)
(10.0209 0.0114031 0)
(10.0257 0.0118592 0)
(10.0304 0.0120938 0)
(10.035 0.0121476 0)
(10.0395 0.0120533 0)
(10.0439 0.0118354 0)
(10.0481 0.0115124 0)
(10.0522 0.0110988 0)
(10.0561 0.010606 0)
(10.0598 0.010044 0)
(10.0633 0.00941865 0)
(10.0667 0.00875748 0)
(10.0001 0.000647425 0)
(10.0013 0.00187064 0)
(10.0036 0.00292882 0)
(10.0069 0.00377511 0)
(10.0107 0.00440992 0)
(10.0149 0.00485574 0)
(10.0192 0.0051355 0)
(10.0237 0.00526902 0)
(10.0281 0.00527547 0)
(10.0326 0.00517286 0)
(10.0369 0.00497642 0)
(10.0411 0.00469838 0)
(10.0451 0.00434881 0)
(10.049 0.00393642 0)
(10.0527 0.0034688 0)
(10.0563 0.00295346 0)
(10.0597 0.00239472 0)
(10.0629 0.00181612 0)
(10.0001 -0.000197404 0)
(10.0013 -0.000585301 0)
(10.0035 -0.0009447 0)
(10.0066 -0.00126795 0)
(10.0103 -0.00155459 0)
(10.0143 -0.00181861 0)
(10.0185 -0.00207779 0)
(10.0228 -0.00234439 0)
(10.0272 -0.0026258 0)
(10.0314 -0.00292784 0)
(10.0356 -0.00325498 0)
(10.0397 -0.00360986 0)
(10.0436 -0.0039933 0)
(10.0473 -0.00440486 0)
(10.0509 -0.00484315 0)
(10.0543 -0.00530556 0)
(10.0576 -0.00579109 0)
(10.0607 -0.00628274 0)
(10.0001 -0.00100588 0)
(10.0013 -0.00294224 0)
(10.0037 -0.00466883 0)
(10.007 -0.00610729 0)
(10.0108 -0.0072546 0)
(10.015 -0.00817053 0)
(10.0193 -0.0089165 0)
(10.0237 -0.00953452 0)
(10.0281 -0.010059 0)
(10.0324 -0.0105215 0)
(10.0365 -0.0109469 0)
(10.0405 -0.0113521 0)
(10.0444 -0.0117481 0)
(10.0481 -0.0121425 0)
(10.0516 -0.0125403 0)
(10.055 -0.0129438 0)
(10.0582 -0.0133554 0)
(10.0612 -0.0137642 0)
(10.0002 -0.00170321 0)
(10.0015 -0.00500084 0)
(10.0041 -0.00792352 0)
(10.0078 -0.0102711 0)
(10.012 -0.0120651 0)
(10.0165 -0.0134553 0)
(10.021 -0.0145479 0)
(10.0256 -0.0154 0)
(10.0301 -0.0160684 0)
(10.0344 -0.0166117 0)
(10.0386 -0.0170745 0)
(10.0427 -0.0174855 0)
(10.0466 -0.0178637 0)
(10.0503 -0.0182231 0)
(10.0538 -0.0185728 0)
(10.0571 -0.0189184 0)
(10.0603 -0.0192642 0)
(10.0633 -0.0196029 0)
(10.0002 -0.00236548 0)
(10.0017 -0.00703501 0)
(10.0047 -0.0111754 0)
(10.009 -0.0143425 0)
(10.0137 -0.0166365 0)
(10.0185 -0.0183678 0)
(10.0234 -0.0196965 0)
(10.0282 -0.0206933 0)
(10.0329 -0.0214397 0)
(10.0374 -0.0220169 0)
(10.0417 -0.0224815 0)
(10.0458 -0.02287 0)
(10.0497 -0.023209 0)
(10.0534 -0.0235179 0)
(10.0569 -0.0238099 0)
(10.0603 -0.0240927 0)
(10.0634 -0.0243717 0)
(10.0664 -0.0246425 0)
(10.0002 -0.00298534 0)
(10.0018 -0.00909487 0)
(10.0054 -0.0144492 0)
(10.0105 -0.018337 0)
(10.0159 -0.0210797 0)
(10.0212 -0.0231005 0)
(10.0263 -0.0245548 0)
(10.0314 -0.0255676 0)
(10.0363 -0.0262932 0)
(10.041 -0.0268415 0)
(10.0454 -0.0272692 0)
(10.0495 -0.0276117 0)
(10.0535 -0.0278984 0)
(10.0572 -0.0281519 0)
(10.0607 -0.0283862 0)
(10.0641 -0.0286098 0)
(10.0672 -0.0288281 0)
(10.0702 -0.0290386 0)
(10.0001 -0.00353175 0)
(10.0018 -0.0115497 0)
(10.0063 -0.0178858 0)
(10.0123 -0.021983 0)
(10.0183 -0.0250495 0)
(10.0241 -0.0274583 0)
(10.0297 -0.0290958 0)
(10.0351 -0.0301053 0)
(10.0402 -0.0307571 0)
(10.0449 -0.0312163 0)
(10.0494 -0.0315503 0)
(10.0537 -0.0317999 0)
(10.0577 -0.0319987 0)
(10.0614 -0.0321709 0)
(10.065 -0.0323298 0)
(10.0683 -0.0324827 0)
(10.0714 -0.0326333 0)
(10.0744 -0.0327781 0)
(9.99991 -0.00338074 0)
(10.0016 -0.0149672 0)
(10.0073 -0.0227252 0)
(10.0142 -0.0262369 0)
(10.0206 -0.0288237 0)
(10.0269 -0.0311889 0)
(10.0331 -0.0329099 0)
(10.039 -0.0339977 0)
(10.0445 -0.0346971 0)
(10.0495 -0.0351607 0)
(10.0541 -0.0354587 0)
(10.0584 -0.0356455 0)
(10.0624 -0.0357671 0)
(10.0661 -0.0358544 0)
(10.0695 -0.0359256 0)
(10.0727 -0.0359905 0)
(10.0756 -0.0360539 0)
(10.0783 -0.0361145 0)
(9.9986 -0.000398073 0)
(9.99909 -0.0157558 0)
(10.0075 -0.0274291 0)
(10.0166 -0.03249 0)
(10.0238 -0.0348664 0)
(10.0306 -0.036222 0)
(10.0376 -0.0369736 0)
(10.0441 -0.03744 0)
(10.0499 -0.0377883 0)
(10.055 -0.0380354 0)
(10.0596 -0.0381803 0)
(10.0637 -0.0382482 0)
(10.0672 -0.0382693 0)
(10.0704 -0.0382646 0)
(10.0732 -0.0382495 0)
(10.0756 -0.0382322 0)
(10.0778 -0.0382166 0)
(10.0796 -0.0382008 0)
(9.99488 0.0013356 0)
(9.99288 -0.00809217 0)
(10.006 -0.020351 0)
(10.0202 -0.0322758 0)
(10.0307 -0.0404776 0)
(10.0393 -0.0441487 0)
(10.0467 -0.0450606 0)
(10.0529 -0.0449156 0)
(10.0578 -0.0444483 0)
(10.0617 -0.0438523 0)
(10.0647 -0.0432075 0)
(10.0668 -0.0425708 0)
(10.0683 -0.0419764 0)
(10.0691 -0.0414325 0)
(10.0695 -0.0409488 0)
(10.0693 -0.0405218 0)
(10.0689 -0.0401488 0)
(10.0681 -0.0398042 0)
(9.99473 -0.0305613 0)
(9.99925 -0.0228715 0)
(10.0147 -0.00263494 0)
(10.0304 -0.00190877 0)
(10.0434 -0.0116579 0)
(10.0533 -0.0209213 0)
(10.0594 -0.0272779 0)
(10.0619 -0.0315053 0)
(10.0615 -0.0342798 0)
(10.0591 -0.0359758 0)
(10.0551 -0.0369075 0)
(10.0498 -0.037341 0)
(10.0435 -0.0374666 0)
(10.0365 -0.0374042 0)
(10.029 -0.0372441 0)
(10.021 -0.0370416 0)
(10.0129 -0.0368615 0)
(10.0047 -0.0366728 0)
(10.0273 -0.182758 0)
(10.0763 -0.288313 0)
(10.0872 -0.247755 0)
(10.0777 -0.186519 0)
(10.0664 -0.140296 0)
(10.0538 -0.108221 0)
(10.0365 -0.0858807 0)
(10.0145 -0.0704204 0)
(9.9894 -0.0596512 0)
(9.96237 -0.0518771 0)
(9.9344 -0.0460547 0)
(9.90609 -0.0415571 0)
(9.87792 -0.0380012 0)
(9.85022 -0.0351263 0)
(9.82324 -0.0327602 0)
(9.79707 -0.0308397 0)
(9.77199 -0.0293236 0)
(9.74799 -0.0285049 0)
(9.93574 0.689319 0)
(9.86861 0.609605 0)
(9.76454 0.380623 0)
(9.62665 0.217442 0)
(9.48591 0.119268 0)
(9.35722 0.0631873 0)
(9.24271 0.031576 0)
(9.14116 0.0136165 0)
(9.05148 0.00326358 0)
(8.97252 -0.00279762 0)
(8.90262 -0.00635314 0)
(8.84045 -0.00847238 0)
(8.78476 -0.00972325 0)
(8.73466 -0.0104694 0)
(8.68924 -0.0109728 0)
(8.6479 -0.0112424 0)
(8.60971 -0.0114497 0)
(8.57437 -0.0121108 0)
(0.00704439 -0.0162333 -8.40721e-19)
(0.0206058 -0.019875 6.42421e-19)
(0.0295973 -0.0128563 0)
(0.0329158 -0.00318635 0)
(0.0299634 0.00551038 0)
(0.0220561 0.0119505 -2.88086e-19)
(0.0104584 0.0161727 0)
(-0.00376834 0.0186927 0)
(-0.0198399 0.0201086 0)
(-0.0372557 0.0209029 0)
(-0.0556808 0.0213894 1.55926e-19)
(-0.074906 0.0217438 0)
(-0.0948056 0.0220581 0)
(-0.115302 0.022373 0)
(-0.13635 0.0227067 0)
(-0.157922 0.0230676 1.02126e-19)
(-0.179996 0.0234661 0)
(-0.202555 0.023914 0)
(-0.22562 0.0244269 0)
(-0.249251 0.0250446 0)
(-0.273489 0.0258445 0)
(-0.298354 0.0269247 0)
(-0.324009 0.0282387 0)
(-0.350694 0.0297621 7.9318e-20)
(-0.378287 0.031397 -7.86606e-20)
(-0.406336 0.0281827 7.70436e-20)
(-0.434402 0.0185928 7.43889e-20)
(-0.460588 0.0164267 0)
(-0.487091 0.0248892 0)
(-0.517638 0.035493 -6.64351e-20)
(-0.550487 0.0508333 -6.44425e-20)
(-0.586155 0.0721919 0)
(-0.62634 0.0592474 0)
(-0.667108 0.0344369 -9.33418e-20)
(-0.702392 0.0437071 0)
(-0.742571 0.0409963 0)
(-0.781369 0.0275651 7.9871e-20)
(-0.817349 0.0262605 0)
(-0.852964 0.034366 7.51786e-20)
(-0.89241 0.0351861 1.45617e-19)
(-0.931584 0.0352978 0)
(-0.970973 0.035227 0)
(-1.01047 0.0351309 0)
(-1.05007 0.0349731 0)
(-1.08971 0.0347722 0)
(-1.12935 0.0345335 1.21753e-19)
(-1.16895 0.0342712 1.18575e-19)
(-1.2085 0.0339923 1.15584e-19)
(-1.24798 0.0337022 0)
(-1.28737 0.0334046 -1.10102e-19)
(-1.32666 0.0331005 0)
(-1.36584 0.0327911 1.05199e-19)
(-1.4049 0.0324761 1.02936e-19)
(-1.44382 0.0321553 0)
(-1.48259 0.031827 0)
(-1.52119 0.0314904 0)
(-1.55961 0.0311436 9.4919e-20)
(-1.59783 0.0307859 0)
(-1.63583 0.030415 0)
(-1.67358 0.0300297 0)
(-1.71106 0.0296287 0)
(-1.74824 0.0292108 0)
(-1.78508 0.0287743 0)
(-1.82157 0.0283182 0)
(-1.85767 0.0278411 0)
(-1.89334 0.0273421 -8.11997e-20)
(-1.92854 0.0268205 0)
(-1.96324 0.0262755 0)
(-1.9974 0.0257067 7.75188e-20)
(-2.03097 0.0251134 7.63615e-20)
(-2.06392 0.0244953 0)
(-2.09621 0.0238519 -7.41364e-20)
(-2.12778 0.0231828 7.30636e-20)
(-2.15859 0.0224879 0)
(-2.18859 0.0217671 -7.09846e-20)
(-2.21775 0.02102 0)
(-2.24601 0.0202473 0)
(-2.27331 0.0194487 6.80013e-20)
(-2.29962 0.0186239 0)
(-2.32488 0.0177716 -6.6079e-20)
(-2.34904 0.0168914 0)
(-2.37205 0.0159811 6.41915e-20)
(-2.39385 0.0150384 6.32563e-20)
(-2.4144 0.014059 6.23239e-20)
(-2.43363 0.0130385 1.22786e-19)
(-2.45149 0.0119699 -1.20924e-19)
(-2.46791 0.0108458 0)
(-2.48282 0.00965742 0)
(-2.49615 0.00839798 0)
(-2.50783 0.00706549 -1.13406e-19)
(-2.51776 0.00567061 -1.115e-19)
(-2.52585 0.00424661 1.09584e-19)
(-2.53198 0.00284071 0)
(-2.536 0.00149833 -1.05715e-19)
(-2.53781 0.000292263 -1.03692e-19)
(-2.53793 -0.000800563 -1.01624e-19)
(-2.5363 -0.00186626 0)
(-2.53295 -0.00292498 0)
(-2.52787 -0.00398649 0)
(-2.52104 -0.00505128 -9.28316e-20)
(-2.51245 -0.00611852 0)
(-2.50208 -0.00718744 0)
(-2.48991 -0.00825674 8.55724e-20)
(-2.47595 -0.00932507 0)
(-2.46019 -0.010391 0)
(-2.44262 -0.0114528 7.7619e-20)
(-2.42325 -0.0125087 0)
(-2.40209 -0.0135563 0)
(-2.37914 -0.0145938 -6.88591e-20)
(-2.35444 -0.0156179 -6.5741e-20)
(-2.32799 -0.0166269 0)
(-2.29983 -0.017617 5.91845e-20)
(-2.26999 -0.0185869 0)
(-2.2385 -0.019532 -5.21766e-20)
(-2.20541 -0.0204518 0)
(-2.17077 -0.0213409 -4.46902e-20)
(-2.13462 -0.0221985 -4.076e-20)
(-2.09702 -0.0230191 0)
(-2.05805 -0.0238014 0)
(-2.01775 -0.0245377 0)
(-1.9762 -0.0252363 0)
(-1.93346 -0.0259013 0)
(-1.88959 -0.0265181 0)
(-1.84471 -0.0270864 0)
(-1.79887 -0.0276171 -4.49091e-21)
(-1.75218 -0.0280949 -6.75551e-22)
(-1.70472 -0.0285252 0)
(-1.65657 -0.0289027 0)
(-1.60781 -0.0292289 0)
(-1.55855 -0.029496 0)
(-1.50886 -0.0297073 -5.73565e-20)
(-1.45885 -0.0298565 0)
(-1.40861 -0.0299466 8.17759e-20)
(-1.35823 -0.0299733 -9.44101e-20)
(-1.3078 -0.0299395 0)
(-1.25742 -0.0298428 0)
(-1.20717 -0.0296842 0)
(-1.15713 -0.0294609 1.47695e-19)
(-1.10738 -0.0291733 1.61694e-19)
(-1.05801 -0.0288272 0)
(-1.00909 -0.0284294 1.90495e-19)
(-0.96069 -0.027988 2.05287e-19)
(-0.91287 -0.0275065 -2.20334e-19)
(-0.865671 -0.0269864 0)
(-0.819136 -0.026429 0)
(-0.7733 -0.0258389 -2.66963e-19)
(-0.72819 -0.0252197 0)
(-0.683826 -0.0245771 0)
(-0.640216 -0.0239142 0)
(-0.597361 -0.0232381 0)
(-0.555252 -0.0225535 3.49584e-19)
(-0.513866 -0.0218689 3.66877e-19)
(-0.473176 -0.0211885 0)
(-0.433139 -0.0205208 4.02343e-19)
(-0.393704 -0.0198735 0)
(-0.354807 -0.019256 0)
(-0.316373 -0.0186734 4.58197e-19)
(-0.278316 -0.0181399 0)
(-0.240536 -0.0176655 4.97804e-19)
(-0.202925 -0.0172583 0)
(-0.165364 -0.0169341 0)
(-0.127696 -0.0167226 5.62657e-19)
(-0.0897798 -0.016648 0)
(-0.0515365 -0.0167143 6.1143e-19)
(-0.0128271 -0.0168599 0)
(0.0261629 -0.0168392 0)
(0.064848 -0.0164959 0)
(0.103788 -0.0161429 -6.40614e-19)
(0.143902 -0.0160513 0)
(0.185446 -0.0162101 6.1264e-19)
(0.228831 -0.0165806 0)
(0.274371 -0.0171065 0)
(0.322319 -0.0177453 0)
(0.37282 -0.018456 0)
(0.425926 -0.0191742 0)
(0.48124 -0.0197696 0)
(0.538812 -0.0199632 0)
(0.593662 -0.0191757 -1.04041e-18)
(0.654371 -0.0159558 0)
(0.661334 0.00261127 0)
(0.00449914 -0.0411894 1.88315e-18)
(0.00804409 -0.0312379 -9.85821e-19)
(0.00552985 -0.0130475 0)
(-0.000189033 0.00416549 2.98222e-19)
(-0.00850719 0.0190049 0)
(-0.0193982 0.0309116 1.10583e-19)
(-0.0326987 0.0399312 -2.00545e-19)
(-0.0482147 0.0464929 -1.84166e-19)
(-0.0656709 0.0511753 0)
(-0.0847728 0.0545333 -1.58443e-19)
(-0.105263 0.057009 -7.41148e-20)
(-0.126941 0.0589168 0)
(-0.149661 0.0604644 0)
(-0.173329 0.0617839 0)
(-0.197898 0.0629586 0)
(-0.223358 0.0640428 -5.70858e-20)
(-0.249724 0.065076 0)
(-0.277034 0.0660894 1.06415e-19)
(-0.305352 0.0671111 0)
(-0.334739 0.0681788 0)
(-0.365229 0.0693544 -9.97658e-20)
(-0.396877 0.0707132 0)
(-0.429775 0.0722818 9.81167e-20)
(-0.46385 0.0740414 -4.9025e-20)
(-0.498683 0.0759496 4.89653e-20)
(-0.534838 0.0775781 -4.85875e-20)
(-0.573107 0.0787163 -4.77001e-20)
(-0.613369 0.0801908 0)
(-0.654588 0.082364 0)
(-0.69512 0.0845462 4.51004e-20)
(-0.735353 0.0859282 -4.48154e-20)
(-0.77344 0.0871041 0)
(-0.812932 0.0878663 0)
(-0.852783 0.0886315 4.62584e-20)
(-0.892698 0.090731 0)
(-0.930725 0.0914628 0)
(-0.969612 0.0912296 -4.02721e-20)
(-1.00926 0.0911281 0)
(-1.04853 0.0914152 3.79873e-20)
(-1.0865 0.0913664 -7.44055e-20)
(-1.12405 0.0909803 0)
(-1.16124 0.0904068 0)
(-1.19813 0.0896987 -1.38756e-19)
(-1.23473 0.0889005 -1.35842e-19)
(-1.27108 0.0880373 -1.33074e-19)
(-1.30719 0.0871289 6.50607e-20)
(-1.34308 0.0861893 -6.41255e-20)
(-1.37874 0.0852282 -1.88468e-19)
(-1.41418 0.084251 1.23253e-19)
(-1.44939 0.083261 6.06907e-20)
(-1.48437 0.0822588 0)
(-1.51912 0.0812444 -5.86358e-20)
(-1.55361 0.0802158 5.73558e-20)
(-1.58785 0.0791714 0)
(-1.62181 0.078108 0)
(-1.65549 0.0770228 0)
(-1.68886 0.0759125 -5.41381e-20)
(-1.7219 0.0747743 0)
(-1.7546 0.0736049 1.04788e-19)
(-1.78693 0.0724015 0)
(-1.81886 0.0711613 1.01792e-19)
(-1.85037 0.0698823 0)
(-1.88144 0.0685618 -9.89562e-20)
(-1.91203 0.0671978 0)
(-1.94212 0.0657881 9.62569e-20)
(-1.97167 0.0643312 -4.73421e-20)
(-2.00065 0.062826 0)
(-2.02903 0.0612713 -9.24175e-20)
(-2.05678 0.0596665 -4.57164e-20)
(-2.08385 0.058011 -4.51058e-20)
(-2.11022 0.0563044 0)
(-2.13585 0.0545463 -4.36806e-20)
(-2.1607 0.0527366 -4.33195e-20)
(-2.18474 0.0508753 0)
(-2.20792 0.0489627 4.21563e-20)
(-2.23021 0.0469991 -8.29661e-20)
(-2.25157 0.0449859 0)
(-2.27195 0.0429237 -4.04339e-20)
(-2.29132 0.0408137 0)
(-2.30964 0.0386558 1.17713e-19)
(-2.32687 0.0364512 0)
(-2.34297 0.0342003 -1.14285e-19)
(-2.35789 0.0319037 -3.75599e-20)
(-2.3716 0.0295611 3.68675e-20)
(-2.38406 0.027173 7.25834e-20)
(-2.39523 0.0247384 -7.14212e-20)
(-2.40508 0.0222564 0)
(-2.41357 0.0197234 0)
(-2.42068 0.0171347 0)
(-2.42639 0.0144823 1.99999e-19)
(-2.43072 0.0117604 6.54107e-20)
(-2.43368 0.00897801 -6.41253e-20)
(-2.43534 0.00617172 0)
(-2.43579 0.00340648 -6.15558e-20)
(-2.43513 0.000769281 6.01006e-20)
(-2.43295 -0.00175422 5.86901e-20)
(-2.42917 -0.00423659 0)
(-2.42374 -0.00669526 0)
(-2.41662 -0.00913906 0)
(-2.4078 -0.0115684 5.27582e-20)
(-2.39725 -0.01398 0)
(-2.38496 -0.0163699 -9.955e-20)
(-2.37091 -0.0187333 -1.44299e-19)
(-2.35511 -0.0210656 9.30353e-20)
(-2.33754 -0.0233621 0)
(-2.31822 -0.0256183 4.33666e-20)
(-2.29713 -0.0278296 0)
(-2.2743 -0.0299907 7.91035e-20)
(-2.24974 -0.0320969 -3.80278e-20)
(-2.22347 -0.0341425 -3.61676e-20)
(-2.19551 -0.0361228 0)
(-2.16588 -0.0380317 -9.54603e-20)
(-2.13463 -0.039865 5.98843e-20)
(-2.10179 -0.0416164 2.74794e-20)
(-2.06741 -0.0432825 0)
(-2.03153 -0.0448572 2.32304e-20)
(-1.99422 -0.0463378 6.40924e-20)
(-1.95552 -0.0477191 0)
(-1.9155 -0.0489988 3.4161e-20)
(-1.87423 -0.0501715 2.961e-20)
(-1.83176 -0.0512367 2.49888e-20)
(-1.78818 -0.052196 0)
(-1.74357 -0.0530551 0)
(-1.698 -0.0538027 0)
(-1.65156 -0.0544352 -3.53239e-21)
(-1.60434 -0.0549597 1.19664e-22)
(-1.55642 -0.0553884 0)
(-1.50789 -0.0557088 8.98088e-21)
(-1.45884 -0.0559221 1.40061e-20)
(-1.40935 -0.0560242 0)
(-1.35951 -0.0560199 2.53984e-20)
(-1.30942 -0.0559056 5.84268e-20)
(-1.25918 -0.055687 -3.55792e-20)
(-1.20886 -0.0553628 -3.81199e-20)
(-1.15855 -0.0549397 0)
(-1.10836 -0.0544195 0)
(-1.05835 -0.0538075 0)
(-1.0086 -0.0531047 -6.08323e-20)
(-0.959181 -0.052316 6.33506e-20)
(-0.910163 -0.0514495 1.39019e-19)
(-0.861617 -0.0505201 -7.55799e-20)
(-0.813605 -0.0495412 7.80805e-20)
(-0.76618 -0.0485251 8.51396e-20)
(-0.719384 -0.0474762 0)
(-0.673249 -0.0464027 0)
(-0.627802 -0.0453101 -9.68705e-20)
(-0.58306 -0.0442098 0)
(-0.53903 -0.043108 0)
(-0.495712 -0.042016 2.22016e-19)
(-0.453094 -0.0409395 0)
(-0.411153 -0.0398925 1.18401e-19)
(-0.369858 -0.0388812 -1.23969e-19)
(-0.329164 -0.0379181 0)
(-0.289016 -0.0370092 1.30017e-19)
(-0.249348 -0.0361709 0)
(-0.210079 -0.0354078 0)
(-0.171115 -0.0347323 -1.41669e-19)
(-0.132348 -0.0341545 2.88657e-19)
(-0.0936584 -0.033692 -1.47906e-19)
(-0.0549095 -0.0333447 0)
(-0.0159529 -0.0331261 0)
(0.0233149 -0.0330208 1.55335e-19)
(0.0629282 -0.0329849 0)
(0.103146 -0.0330235 1.56156e-19)
(0.144321 -0.0331468 0)
(0.186797 -0.0332775 0)
(0.230939 -0.0334761 0)
(0.276976 -0.0339443 1.55578e-19)
(0.324997 -0.0347572 0)
(0.375167 -0.0358661 -1.55127e-19)
(0.427698 -0.0372156 0)
(0.482764 -0.0387292 0)
(0.540502 -0.0403373 3.09013e-19)
(0.600913 -0.0419436 -3.09168e-19)
(0.66388 -0.0434056 0)
(0.728919 -0.044493 0)
(0.79569 -0.0446582 0)
(0.860727 -0.0430073 9.4603e-19)
(0.92857 -0.0361885 0)
(0.96812 -0.0130057 -6.60821e-19)
(-0.00254624 -0.0429757 -1.02497e-21)
(-0.00774976 -0.0191557 9.38944e-19)
(-0.0165398 0.00461187 0)
(-0.0275475 0.0253738 -3.74859e-19)
(-0.0400325 0.0432721 0)
(-0.0537588 0.0583772 0)
(-0.0688323 0.0707798 3.33593e-23)
(-0.0853801 0.0807126 1.16586e-19)
(-0.103442 0.0885463 1.09851e-19)
(-0.122976 0.0947135 1.04244e-19)
(-0.143896 0.0996342 0)
(-0.1661 0.103669 0)
(-0.189494 0.107103 -9.11132e-20)
(-0.214006 0.110154 -1.75382e-19)
(-0.239588 0.112982 1.69327e-19)
(-0.266216 0.115709 0)
(-0.293883 0.118432 1.59399e-19)
(-0.322596 0.121225 -7.77592e-20)
(-0.352372 0.124151 0)
(-0.383224 0.127257 1.49497e-19)
(-0.415132 0.130568 7.37019e-20)
(-0.448044 0.134069 -1.45571e-19)
(-0.481867 0.137692 -7.1966e-20)
(-0.516445 0.141269 0)
(-0.551592 0.144522 1.39672e-19)
(-0.587326 0.147064 1.368e-19)
(-0.623872 0.148832 0)
(-0.661135 0.150698 1.30295e-19)
(-0.698401 0.152916 0)
(-0.734897 0.155213 1.24593e-19)
(-0.770482 0.157475 6.14516e-20)
(-0.804958 0.158894 0)
(-0.839066 0.158524 0)
(-0.873267 0.157039 0)
(-0.907226 0.155791 0)
(-0.940687 0.153694 0)
(-0.974486 0.151045 0)
(-1.00867 0.149019 1.03441e-19)
(-1.04263 0.147553 -1.51723e-19)
(-1.076 0.146003 0)
(-1.10904 0.144413 0)
(-1.14183 0.142805 0)
(-1.17441 0.141183 1.48321e-22)
(-1.2068 0.139545 9.14135e-20)
(-1.23901 0.137894 1.79284e-19)
(-1.27105 0.13623 -1.76042e-19)
(-1.30294 0.134556 -8.63849e-20)
(-1.33468 0.132874 8.50618e-20)
(-1.36626 0.131182 -1.70539e-22)
(-1.39769 0.12948 8.20812e-20)
(-1.42895 0.127765 0)
(-1.46004 0.126033 7.94703e-20)
(-1.49095 0.124281 -1.75108e-22)
(-1.52166 0.122504 0)
(-1.55216 0.120696 0)
(-1.58244 0.118853 -7.47456e-20)
(-1.61247 0.116971 0)
(-1.64224 0.115043 0)
(-1.67172 0.113067 7.13789e-20)
(-1.7009 0.111037 1.41083e-19)
(-1.72975 0.10895 -6.97246e-20)
(-1.75825 0.106803 0)
(-1.78636 0.104592 6.78122e-20)
(-1.81407 0.102314 0)
(-1.84134 0.0999671 6.56531e-20)
(-1.86814 0.0975488 6.50777e-20)
(-1.89445 0.0950578 -1.28084e-19)
(-1.92022 0.0924926 -6.30256e-20)
(-1.94543 0.0898524 0)
(-1.97005 0.0871365 1.22952e-19)
(-1.99404 0.0843445 0)
(-2.01736 0.0814762 1.79564e-19)
(-2.03998 0.0785319 1.17974e-19)
(-2.06187 0.0755116 1.16337e-19)
(-2.08297 0.0724163 -1.14708e-19)
(-2.10327 0.0692468 1.69736e-19)
(-2.12271 0.0660047 0)
(-2.14127 0.0626911 0)
(-2.15889 0.0593077 -1.08216e-19)
(-2.17555 0.0558557 -1.59969e-19)
(-2.19121 0.0523368 0)
(-2.20582 0.0487526 5.17287e-20)
(-2.21934 0.0451049 0)
(-2.23175 0.0413957 -1.5005e-19)
(-2.243 0.0376275 -9.89032e-23)
(-2.25307 0.0338032 8.2579e-23)
(-2.26191 0.0299269 9.49062e-20)
(-2.26951 0.0260034 0)
(-2.27583 0.0220399 -9.14194e-20)
(-2.28087 0.0180459 -1.07969e-23)
(-2.28461 0.0140361 0)
(-2.28704 0.0100317 0)
(-2.28813 0.00605504 0)
(-2.28784 0.00211714 8.21649e-20)
(-2.28612 -0.00180771 0)
(-2.28287 -0.00573745 0)
(-2.27806 -0.00965966 0)
(-2.27166 -0.0135675 0)
(-2.26363 -0.0174559 0)
(-2.25395 -0.0213188 6.99511e-20)
(-2.2426 -0.0251495 0)
(-2.22957 -0.0289402 6.5324e-20)
(-2.21485 -0.0326829 6.30541e-20)
(-2.19843 -0.03637 -6.07444e-20)
(-2.18031 -0.0399935 0)
(-2.16048 -0.0435458 -5.60027e-20)
(-2.13897 -0.0470187 0)
(-2.11576 -0.0504041 -5.1096e-20)
(-2.09089 -0.0536934 4.85807e-20)
(-2.06437 -0.0568785 1.38966e-19)
(-2.03622 -0.0599506 0)
(-2.00648 -0.0629018 1.2336e-19)
(-1.97517 -0.0657234 3.91501e-20)
(-1.94234 -0.068408 0)
(-1.90803 -0.0709476 6.64266e-20)
(-1.87229 -0.0733356 6.08997e-20)
(-1.83517 -0.0755655 -8.23531e-20)
(-1.79673 -0.0776319 0)
(-1.75704 -0.0795286 -2.13218e-20)
(-1.71616 -0.0812502 -1.8418e-20)
(-1.67414 -0.082793 -4.78262e-20)
(-1.63108 -0.0841583 0)
(-1.58704 -0.0853547 0)
(-1.54211 -0.0863813 0)
(-1.49638 -0.0872234 -5.05903e-21)
(-1.44991 -0.0878856 0)
(-1.4028 -0.0883835 0)
(-1.35514 -0.0887131 -5.42743e-21)
(-1.307 -0.088871 -8.43277e-21)
(-1.25847 -0.0888566 0)
(-1.20964 -0.0886725 0)
(-1.16059 -0.08832 -3.47823e-20)
(-1.11142 -0.0878041 0)
(-1.0622 -0.0871291 4.6549e-20)
(-1.01302 -0.0863026 5.08236e-20)
(-0.963963 -0.0853313 0)
(-0.915102 -0.0842234 0)
(-0.866507 -0.0829847 -6.78741e-20)
(-0.818239 -0.0816245 -1.46464e-21)
(-0.770359 -0.080156 -1.44e-21)
(-0.722929 -0.0785989 0)
(-0.676005 -0.0769724 -1.80311e-19)
(-0.629632 -0.0752942 0)
(-0.583846 -0.0735749 0)
(-0.538672 -0.0718277 0)
(-0.494128 -0.0700636 1.10614e-19)
(-0.450222 -0.0682988 0)
(-0.406955 -0.066545 -2.37194e-19)
(-0.364315 -0.0648176 -1.24087e-19)
(-0.322282 -0.063128 0)
(-0.280824 -0.0614944 -1.32352e-19)
(-0.239902 -0.0599287 0)
(-0.19946 -0.0584473 0)
(-0.159434 -0.0570616 -4.29167e-19)
(-0.119747 -0.0557928 2.9255e-19)
(-0.0803115 -0.0546512 0)
(-0.0410228 -0.0536534 3.05581e-19)
(-0.00176029 -0.0528105 -1.56414e-19)
(0.0375701 -0.052133 0)
(0.0770987 -0.0516244 0)
(0.117023 -0.0513051 0)
(0.15754 -0.051175 -4.85313e-19)
(0.198858 -0.0512532 0)
(0.241205 -0.051561 -1.63292e-19)
(0.284812 -0.0520911 0)
(0.329958 -0.0528154 0)
(0.376969 -0.0537778 0)
(0.426099 -0.0550626 0)
(0.477479 -0.0567139 0)
(0.531245 -0.058707 0)
(0.587539 -0.0609836 -3.31988e-19)
(0.646481 -0.0634509 0)
(0.708134 -0.0660024 -1.67638e-19)
(0.772449 -0.0684984 5.04711e-19)
(0.839268 -0.0707244 0)
(0.908125 -0.0723258 0)
(0.978663 -0.0726016 -3.44346e-19)
(1.04835 -0.0703394 -3.49996e-19)
(1.12105 -0.0621364 3.55535e-19)
(1.17817 -0.0393706 3.67357e-19)
(-0.00861569 -0.0265467 -2.84748e-18)
(-0.0193876 0.00511231 -1.1219e-18)
(-0.0321305 0.0315605 -4.0511e-19)
(-0.0468518 0.0539808 -1.45411e-19)
(-0.0624592 0.0734115 0)
(-0.0786428 0.0902357 2.10696e-19)
(-0.0955603 0.104631 -9.62788e-20)
(-0.113411 0.116775 0)
(-0.132334 0.126917 -8.51261e-20)
(-0.152404 0.135371 0)
(-0.173642 0.142473 1.55701e-19)
(-0.196035 0.148545 0)
(-0.219545 0.153868 7.23328e-20)
(-0.244126 0.158675 1.40001e-19)
(-0.269734 0.163152 -1.35805e-19)
(-0.296323 0.167442 0)
(-0.323851 0.171654 -1.28658e-19)
(-0.352268 0.175864 0)
(-0.381522 0.180118 0)
(-0.41154 0.184432 -1.206e-19)
(-0.44223 0.188775 0)
(-0.473467 0.193056 1.99576e-23)
(-0.505106 0.197117 0)
(-0.536992 0.200759 0)
(-0.568999 0.203771 -8.37616e-23)
(-0.601078 0.205989 -1.07273e-19)
(-0.633233 0.207462 -1.04345e-19)
(-0.665397 0.208525 -1.01631e-19)
(-0.697322 0.209414 0)
(-0.728782 0.210124 -1.92696e-19)
(-0.759682 0.210517 0)
(-0.790074 0.210319 -9.20306e-20)
(-0.820186 0.209368 0)
(-0.850207 0.207838 0)
(-0.880114 0.205969 8.58886e-20)
(-0.909926 0.203659 0)
(-0.939799 0.201109 -8.19288e-20)
(-0.96971 0.198659 -4.28524e-23)
(-0.99949 0.196358 1.56986e-19)
(-1.02908 0.194068 -1.53738e-19)
(-1.05853 0.191781 0)
(-1.08786 0.189507 0)
(-1.11709 0.187247 -7.24434e-20)
(-1.14622 0.185002 0)
(-1.17526 0.182767 -6.99566e-20)
(-1.20421 0.180537 6.87435e-20)
(-1.23306 0.178309 6.75782e-20)
(-1.26182 0.176078 0)
(-1.29048 0.17384 -6.53769e-20)
(-1.31904 0.171589 -6.43348e-20)
(-1.34748 0.169319 1.26505e-19)
(-1.37581 0.167025 -6.23539e-20)
(-1.404 0.1647 -6.14102e-20)
(-1.43204 0.162337 0)
(-1.45991 0.159929 0)