# vtk DataFile Version 2.0
tracks
ASCII
DATASET POLYDATA
POINTS 12065 float
-0.0206 0.000999956 1e-05 -0.02058 0.000999959 1e-05 -0.02056 0.000999965 1e-05 -0.02054 0.000999974
1e-05 -0.02052 0.000999985 1e-05 -0.0205 0.001 1e-05 -0.0202034 0.00100022 1e-05
-0.0199069 0.00100067 1e-05 -0.0196103 0.00100132 1e-05 -0.0193137 0.00100219 1e-05 -0.0190172
0.00100326 1e-05 -0.0187132 0.00100466 1e-05 -0.0184093 0.00100588 1e-05 -0.0181054 0.0010071
1e-05 -0.0178015 0.00100832 1e-05 -0.0174976 0.00100953 1e-05 -0.0172058 0.00101083 1e-05
-0.016914 0.00101193 1e-05 -0.0166222 0.00101303 1e-05 -0.0163305 0.00101413 1e-05 -0.0160387
0.00101523 1e-05 -0.0157586 0.00101636 1e-05 -0.0154784 0.00101745 1e-05 -0.0151983 0.00101856
1e-05 -0.0149182 0.00101972 1e-05 -0.0146381 0.0010209 1e-05 -0.0143747 0.00102209 1e-05
-0.0141113 0.00102327 1e-05 -0.0138479 0.00102449 1e-05 -0.0135845 0.00102574 1e-05 -0.0133621
0.00102682 1e-05 -0.0133484 0.00102689 1e-05 -0.0133346 0.00102695 1e-05 -0.0133209 0.00102702
1e-05 -0.0133072 0.00102709 1e-05 -0.0132934 0.00102716 1e-05 -0.0130353 0.00102845 1e-05
-0.0127771 0.00102975 1e-05 -0.0125189 0.00103107 1e-05 -0.0122607 0.0010324 1e-05 -0.0120025
0.00103376 1e-05 -0.0117547 0.00103506 1e-05 -0.0115068 0.00103638 1e-05 -0.0112589 0.0010377
1e-05 -0.0110111 0.00103903 1e-05 -0.0107632 0.00104036 1e-05 -0.0105252 0.00104163 1e-05
-0.0102873 0.00104291 1e-05 -0.0100493 0.00104419 1e-05 -0.00981133 0.00104547 1e-05 -0.00957337
0.00104675 1e-05 -0.00934491 0.00104797 1e-05 -0.00911645 0.00104919 1e-05 -0.008888 0.00105041
1e-05 -0.00865954 0.00105163 1e-05 -0.00843108 0.00105285 1e-05 -0.00821175 0.001054 1e-05
-0.00799242 0.00105516 1e-05 -0.00777309 0.00105632 1e-05 -0.00755376 0.00105747 1e-05 -0.00733443
0.00105861 1e-05 -0.00712387 0.0010597 1e-05 -0.0069133 0.0010608 1e-05 -0.00670273 0.00106188
1e-05 -0.00649216 0.00106297 1e-05 -0.0062816 0.00106405 1e-05 -0.00607944 0.00106507 1e-05
-0.00587729 0.0010661 1e-05 -0.00567514 0.00106713 1e-05 -0.00547298 0.00106815 1e-05 -0.00527083
0.00106916 1e-05 -0.00507675 0.00107013 1e-05 -0.00488267 0.00107109 1e-05 -0.0046886 0.00107206
1e-05 -0.00449452 0.00107302 1e-05 -0.00430044 0.00107397 1e-05 -0.00411412 0.00107488 1e-05
-0.0039278 0.00107579 1e-05 -0.00374147 0.0010767 1e-05 -0.00355515 0.00107761 1e-05 -0.00336883
0.00107851 1e-05 -0.00318995 0.00107937 1e-05 -0.00301107 0.00108023 1e-05 -0.00283219 0.00108109
1e-05 -0.00265331 0.00108194 1e-05 -0.00247443 0.0010828 1e-05 -0.0023027 0.00108361 1e-05
-0.00213097 0.00108443 1e-05 -0.00195924 0.00108525 1e-05 -0.0017875 0.00108607 1e-05 -0.00161577
0.00108689 1e-05 -0.0014509 0.00108766 1e-05 -0.00128603 0.00108844 1e-05 -0.00112116 0.00108923
1e-05 -0.000956289 0.00109002 1e-05 -0.000791418 0.00109081 1e-05 -0.000633135 0.00109156 1e-05
-0.000474851 0.00109233 1e-05 -0.000316567 0.00109309 1e-05 -0.000158284 0.00109386 1e-05 0
0.00109462 1e-05 0.000105677 0.00109513 1e-05 0.000211355 0.00109564 1e-05 0.000317032 0.00109615
1e-05 0.00042271 0.00109666 1e-05 0.000528387 0.00109716 1e-05 0.000634886 0.00109767 1e-05
0.000741385 0.00109817 1e-05 0.000847885 0.00109867 1e-05 0.000954384 0.00109916 1e-05 0.00106088
0.00109965 1e-05 0.00116821 0.00110014 1e-05 0.00127554 0.00110062 1e-05 0.00138286 0.0011011
1e-05 0.00149019 0.00110157 1e-05 0.00159752 0.00110203 1e-05 0.00170568 0.00110249 1e-05
0.00181384 0.00110294 1e-05 0.001922 0.00110338 1e-05 0.00203016 0.00110382 1e-05 0.00213833
0.00110424 1e-05 0.00224733 0.00110466 1e-05 0.00235633 0.00110507 1e-05 0.00246533 0.00110548
1e-05 0.00257434 0.00110587 1e-05 0.00268334 0.00110626 1e-05 0.00279319 0.00110663 1e-05
0.00290304 0.00110701 1e-05 0.00301289 0.00110737 1e-05 0.00312274 0.00110773 1e-05 0.00323259
0.00110808 1e-05 0.00334329 0.00110842 1e-05 0.003454 0.00110875 1e-05 0.0035647 0.00110908
1e-05 0.0036754 0.0011094 1e-05 0.00378611 0.00110971 1e-05 0.00389767 0.00111001 1e-05
0.00400924 0.00111031 1e-05 0.0041208 0.0011106 1e-05 0.00423237 0.00111089 1e-05 0.00434393
0.00111116 1e-05 0.00445636 0.00111142 1e-05 0.00456879 0.00111169 1e-05 0.00468123 0.00111194
1e-05 0.00479366 0.00111218 1e-05 0.00490609 0.00111242 1e-05 0.0050194 0.00111265 1e-05
0.0051327 0.00111287 1e-05 0.00524601 0.00111308 1e-05 0.00535932 0.00111329 1e-05 0.00547262
0.00111349 1e-05 0.00558681 0.00111368 1e-05 0.005701 0.00111386 1e-05 0.00581518 0.00111404
1e-05 0.00592937 0.00111421 1e-05 0.00604356 0.00111437 1e-05 0.00615863 0.00111452 1e-05
0.00627371 0.00111467 1e-05 0.00638878 0.00111481 1e-05 0.00650386 0.00111494 1e-05 0.00661893
0.00111506 1e-05 0.0067349 0.00111518 1e-05 0.00685087 0.00111529 1e-05 0.00696684 0.00111539
1e-05 0.00708281 0.00111548 1e-05 0.00719878 0.00111557 1e-05 0.00731516 0.00111564 1e-05
0.00743155 0.00111571 1e-05 0.00754793 0.00111578 1e-05 0.00766432 0.00111583 1e-05 0.0077741
0.00111587 1e-05 0.00777591 0.00111587 1e-05 0.00777771 0.00111588 1e-05 0.00777952 0.00111588
1e-05 0.00778133 0.00111588 1e-05 0.00778313 0.00111588 1e-05 0.00790091 0.00111592 1e-05
0.00801869 0.00111595 1e-05 0.00813647 0.00111597 1e-05 0.00825425 0.00111598 1e-05 0.00837203
0.00111599 1e-05 0.00849073 0.00111599 1e-05 0.00860942 0.00111598 1e-05 0.00872812 0.00111596
1e-05 0.00884682 0.00111593 1e-05 0.00896551 0.0011159 1e-05 0.00908513 0.00111585 1e-05
0.00920475 0.00111579 1e-05 0.00932437 0.00111573 1e-05 0.00944398 0.00111567 1e-05 0.0095636
0.00111559 1e-05 0.00968415 0.00111549 1e-05 0.0098047 0.0011154 1e-05 0.00992525 0.0011153
1e-05 0.0100458 0.00111518 1e-05 0.0101663 0.00111506 1e-05 0.0102878 0.00111492 1e-05
0.0104093 0.00111478 1e-05 0.0105308 0.00111464 1e-05 0.0106523 0.00111448 1e-05 0.0107738
0.00111431 1e-05 0.0108962 0.00111413 1e-05 0.0110186 0.00111394 1e-05 0.0111411 0.00111375
1e-05 0.0112635 0.00111354 1e-05 0.0113859 0.00111333 1e-05 0.0115093 0.0011131 1e-05
0.0116327 0.00111287 1e-05 0.0117561 0.00111262 1e-05 0.0118795 0.00111237 1e-05 0.0120028
0.00111212 1e-05 0.0121272 0.00111183 1e-05 0.0122515 0.00111155 1e-05 0.0123759 0.00111126
1e-05 0.0125002 0.00111096 1e-05 0.0126245 0.00111066 1e-05 0.0127498 0.00111032 1e-05
0.0128752 0.00110999 1e-05 0.0130005 0.00110965 1e-05 0.0131258 0.0011093 1e-05 0.0132511
0.00110895 1e-05 0.0133774 0.00110856 1e-05 0.0135036 0.00110818 1e-05 0.0136299 0.00110779
1e-05 0.0137562 0.00110739 1e-05 0.0138825 0.00110698 1e-05 0.0140098 0.00110655 1e-05
0.014137 0.00110612 1e-05 0.0142643 0.00110567 1e-05 0.0143915 0.00110522 1e-05 0.0145188
0.00110476 1e-05 0.0146471 0.00110428 1e-05 0.0147753 0.00110379 1e-05 0.0149036 0.00110329
1e-05 0.0150318 0.00110278 1e-05 0.0151601 0.00110227 1e-05 0.0152893 0.00110173 1e-05
0.0154186 0.00110119 1e-05 0.0155478 0.00110064 1e-05 0.0156771 0.00110008 1e-05 0.0158063
0.00109951 1e-05 0.0159366 0.00109892 1e-05 0.0160668 0.00109833 1e-05 0.0161971 0.00109772
1e-05 0.0163273 0.0010971 1e-05 0.0164576 0.00109648 1e-05 0.0165889 0.00109584 1e-05
0.0167201 0.00109519 1e-05 0.0168514 0.00109453 1e-05 0.0169827 0.00109385 1e-05 0.0171139
0.00109317 1e-05 0.0172462 0.00109248 1e-05 0.0173785 0.00109178 1e-05 0.0175108 0.00109106
1e-05 0.0176431 0.00109033 1e-05 0.0177754 0.00108959 1e-05 0.0179087 0.00108885 1e-05
0.018042 0.00108809 1e-05 0.0181753 0.00108731 1e-05 0.0183087 0.00108652 1e-05 0.018442
0.00108573 1e-05 0.0185763 0.00108494 1e-05 0.0187107 0.00108412 1e-05 0.018845 0.00108329
1e-05 0.0189794 0.00108244 1e-05 0.0191137 0.0010816 1e-05 0.0192491 0.00108075 1e-05
0.0193845 0.00107987 1e-05 0.0195199 0.00107898 1e-05 0.0196553 0.00107808 1e-05 0.0197907
0.00107718 1e-05 0.0199272 0.00107627 1e-05 0.0200636 0.00107534 1e-05 0.0202001 0.00107439
1e-05 0.0203365 0.00107343 1e-05 0.020473 0.00107247 1e-05 0.0206105 0.00107151 1e-05
0.020748 0.00107053 1e-05 0.0208855 0.00106952 1e-05 0.021023 0.0010685 1e-05 0.0211606
0.00106749 1e-05 0.0212991 0.00106647 1e-05 0.0214377 0.00106543 1e-05 0.0215763 0.00106437
1e-05 0.0217149 0.00106329 1e-05 0.0218535 0.00106222 1e-05 0.0219931 0.00106115 1e-05
0.0221328 0.00106005 1e-05 0.0222724 0.00105892 1e-05 0.0224121 0.00105779 1e-05 0.0225517
0.00105666 1e-05 0.0226925 0.00105553 1e-05 0.0228332 0.00105438 1e-05 0.022974 0.00105319
1e-05 0.0231147 0.001052 1e-05 0.0232555 0.00105081 1e-05 0.0233973 0.00104963 1e-05
0.0235391 0.00104841 1e-05 0.023681 0.00104717 1e-05 0.0238228 0.00104591 1e-05 0.0239647
0.00104467 1e-05 0.0241076 0.00104342 1e-05 0.0242505 0.00104215 1e-05 0.0243935 0.00104085
1e-05 0.0245364 0.00103953 1e-05 0.0246794 0.00103823 1e-05 0.0248234 0.00103692 1e-05
0.0249675 0.00103559 1e-05 0.0251115 0.00103422 1e-05 0.0252556 0.00103285 1e-05 0.0253996
0.00103149 1e-05 0.0255448 0.00103012 1e-05 0.02569 0.00102872 1e-05 0.0258351 0.0010273
1e-05 0.0259803 0.00102587 1e-05 0.0261255 0.00102444 1e-05 0.0262718 0.00102301 1e-05
0.0264181 0.00102155 1e-05 0.0265644 0.00102007 1e-05 0.0267107 0.00101858 1e-05 0.026857
0.00101709 1e-05 0.0270044 0.00101559 1e-05 0.0271519 0.00101407 1e-05 0.0272993 0.00101252
1e-05 0.0274468 0.00101097 1e-05 0.0275942 0.00100941 1e-05 0.0277428 0.00100785 1e-05
0.0278914 0.00100626 1e-05 0.0280399 0.00100465 1e-05 0.0281885 0.00100303 1e-05 0.0283371
0.00100141 1e-05 0.0284869 0.000999779 1e-05 0.0286366 0.000998119 1e-05 0.0287863 0.000996444
1e-05 0.0289361 0.000994758 1e-05 0.0290858 0.000993065 1e-05 0.0292367 0.000991366 1e-05
0.0293876 0.000989635 1e-05 0.0295385 0.000987891 1e-05 0.0296894 0.000986137 1e-05 0.0298403
0.000984372 1e-05 0.0299924 0.000982599 1e-05 0.0301445 0.000980796 1e-05 0.0302966 0.000978982
1e-05 0.0304486 0.000977156 1e-05 0.0306007 0.00097532 1e-05 0.030754 0.000973471 1e-05
0.0309072 0.000971595 1e-05 0.0310605 0.000969707 1e-05 0.0312138 0.000967808 1e-05 0.031367
0.000965896 1e-05 0.0315215 0.000963969 1e-05 0.0316759 0.000962017 1e-05 0.0318304 0.000960053
1e-05 0.0319848 0.000958077 1e-05 0.0321393 0.000956088 1e-05 0.0322949 0.000954079 1e-05
[...]
POINT_DATA 12065
FIELD attributes 4
age 1 12065 float
-9.99973e-06 -7.99975e-06 -5.99979e-06 -3.99984e-06 -1.99991e-06 0 2.96554e-05 5.93049e-05 8.89483e-05 0.000118586 0.000148217
0.000178568 0.000208911 0.00023924 0.000269556 0.000299858 0.000328932 0.000357998 0.000387053 0.000416096 0.000445127
0.000472987 0.000500841 0.000528688 0.000556529 0.000584362 0.000610528 0.000636689 0.000662847 0.000689001 0.000711088
0.000712451 0.000713814 0.000715178 0.000716541 0.000717904 0.000743534 0.000769164 0.000794792 0.000820419 0.000846044
0.000870645 0.000895246 0.000919847 0.00094445 0.000969053 0.000992675 0.0010163 0.00103992 0.00106355 0.00108718
0.00110987 0.00113256 0.00115526 0.00117795 0.00120066 0.00122246 0.00124426 0.00126606 0.00128787 0.00130968
0.00133063 0.00135158 0.00137253 0.00139349 0.00141445 0.00143459 0.00145472 0.00147486 0.001495 0.00151514
0.0015345 0.00155385 0.0015732 0.00159256 0.00161192 0.00163052 0.00164912 0.00166772 0.00168633 0.00170494
0.00172282 0.0017407 0.00175857 0.00177646 0.00179435 0.00181154 0.00182872 0.0018459 0.00186309 0.00188028
0.00189681 0.00191332 0.00192983 0.00194635 0.00196288 0.00197876 0.00199463 0.0020105 0.00202637 0.00204225
0.00205286 0.00206347 0.00207407 0.00208468 0.00209528 0.00210599 0.00211668 0.00212737 0.00213807 0.00214876
0.00215956 0.00217034 0.00218112 0.00219191 0.0022027 0.00221358 0.00222446 0.00223533 0.00224621 0.0022571
0.00226808 0.00227904 0.00229002 0.00230099 0.00231197 0.00232305 0.00233411 0.00234519 0.00235626 0.00236734
0.00237851 0.00238968 0.00240086 0.00241203 0.00242321 0.00243449 0.00244576 0.00245704 0.00246832 0.00247961
0.002491 0.00250238 0.00251376 0.00252515 0.00253655 0.00254805 0.00255954 0.00257104 0.00258254 0.00259405
0.00260567 0.00261728 0.00262889 0.00264051 0.00265214 0.00266387 0.0026756 0.00268734 0.00269908 0.00271083
0.00272269 0.00273454 0.00274641 0.00275828 0.00277015 0.00278209 0.00279402 0.00280597 0.00281792 0.0028292
0.00282939 0.00282957 0.00282976 0.00282994 0.00283013 0.00284224 0.00285436 0.00286649 0.00287863 0.00289078
0.00290304 0.0029153 0.00292758 0.00293986 0.00295215 0.00296456 0.00297697 0.00298939 0.00300182 0.00301426
0.00302683 0.00303939 0.00305197 0.00306455 0.00307714 0.00308988 0.0031026 0.00311533 0.00312807 0.00314082
0.00315372 0.0031666 0.0031795 0.0031924 0.00320532 0.00321839 0.00323144 0.0032445 0.00325758 0.00327067
0.00328392 0.00329714 0.00331037 0.00332362 0.00333688 0.00335032 0.00336372 0.00337713 0.00339056 0.003404
0.00341762 0.0034312 0.0034448 0.00345841 0.00347203 0.00348584 0.00349961 0.00351339 0.00352719 0.00354101
0.00355501 0.00356897 0.00358295 0.00359694 0.00361096 0.00362516 0.00363932 0.00365349 0.00366768 0.0036819
0.0036963 0.00371066 0.00372503 0.00373942 0.00375385 0.00376845 0.00378302 0.0037976 0.00381219 0.00382682
0.00384163 0.00385641 0.00387119 0.00388599 0.00390083 0.00391585 0.00393085 0.00394584 0.00396085 0.0039759
0.00399113 0.00400634 0.00402155 0.00403677 0.00405204 0.00406748 0.00408291 0.00409833 0.00411377 0.00412925
0.00414491 0.00416056 0.0041762 0.00419186 0.00420757 0.00422344 0.00423931 0.00425518 0.00427106 0.00428699
0.00430308 0.00431918 0.00433527 0.00435137 0.00436752 0.00438385 0.00440016 0.00441648 0.00443281 0.00444919
0.00446573 0.00448228 0.00449882 0.00451539 0.00453199 0.00454876 0.00456553 0.00458231 0.0045991 0.00461593
0.00463293 0.00464993 0.00466694 0.00468396 0.00470102 0.00471825 0.00473548 0.00475272 0.00476998 0.00478727
0.00480473 0.00482219 0.00483967 0.00485716 0.00487468 0.00489237 0.00491007 0.00492778 0.00494551 0.00496327
0.00498119 0.00499913 0.00501708 0.00503504 0.00505303 0.0050712 0.00508937 0.00510756 0.00512576 0.00514399
0.00516239 0.0051808 0.00519922 0.00521767 0.00523613 0.00525477 0.00527342 0.00529209 0.00531077 0.00532948
0.00534836 0.00536725 0.00538616 0.00540508 0.00542403 0.00544315 0.00546228 0.00548144 0.00550061 0.0055198
0.00553916 0.00555854 0.00557794 0.00559735 0.00561678 0.00563639 0.00565602 0.00567566 0.00569532 0.005715
0.00573486 0.00575473 0.00577462 0.00579453 0.00581445 0.00583024 0.00584603 0.00586184 0.00587765 0.00589292
0.00589737 0.00590182 0.00590627 0.00591072 0.00591517 0.00593552 0.00595589 0.00597629 0.0059967 0.00601713
0.00603773 0.00605836 0.00607901 0.00609968 0.00612036 0.00614122 0.00616211 0.00618301 0.00620394 0.00622488
0.006246 0.00626714 0.00628831 0.00630949 0.00633069 0.00635207 0.00637348 0.0063949 0.00641635 0.00643781
0.00645945 0.00648112 0.00650281 0.00652452 0.00654625 0.00656815 0.00659008 0.00661204 0.00663401 0.006656
0.00667818 0.00670037 0.0067226 0.00674484 0.0067671 0.00678954 0.00681201 0.0068345 0.00685702 0.00687954
0.00690226 0.006925 0.00694777 0.00697056 0.00699336 0.00701634 0.00703936 0.0070624 0.00708547 0.00710855
0.00713181 0.00715511 0.00717843 0.00720177 0.00722513 0.00724867 0.00727225 0.00729586 0.00731948 0.00734312
0.00736695 0.00739081 0.0074147 0.00743861 0.00746253 0.00748666 0.00751081 0.00753499 0.00755918 0.0075834
0.00760781 0.00763226 0.00765673 0.00768122 0.00770572 0.00773043 0.00775517 0.00777994 0.00780473 0.00782953
0.00785454 0.00787959 0.00790465 0.00792974 0.00795485 0.00798016 0.00800551 0.00803088 0.00805628 0.00808169
0.00810732 0.00813298 0.00815866 0.00818436 0.00821009 0.00823603 0.008262 0.008288 0.00831402 0.00834006
0.00835636 0.00837267 0.00838899 0.00840532 0.00842097 0.00843111 0.00844124 0.00845138 0.00846152 0.00847167
0.00849827 0.00852489 0.00855153 0.0085782 0.0086049 0.00863183 0.00865879 0.00868577 0.00871278 0.00873982
0.00876708 0.00879438 0.00882171 0.00884906 0.00887645 0.00890406 0.00893171 0.00895939 0.00898709 0.00901483
0.00904279 0.00907079 0.00909883 0.0091269 0.00915499 0.00918331 0.00921168 0.00924008 0.00926852 0.00929697
0.00932567 0.0093544 0.00938318 0.00941199 0.00944082 0.00946988 0.009499 0.00952816 0.00955735 0.00958656
0.00961601 0.00964552 0.00967506 0.00970464 0.00973425 0.0097641 0.009794 0.00982394 0.00985392 0.00988392
0.00991418 0.00994449 0.00997484 0.0100052 0.0100356 0.0100663 0.010097 0.0101278 0.0101586 0.0101894
0.0102205 0.0102517 0.0102829 0.0103141 0.0103454 0.0103519 0.0103584 0.0103648 0.0103713 0.0103777
0.0104028 0.010428 0.0104532 0.0104783 0.0105036 0.0105356 0.0105676 0.0105997 0.0106319 0.010664
0.0106965 0.010729 0.0107616 0.0107942 0.0108269 0.0108599 0.0108929 0.010926 0.0109591 0.0109922
0.0110257 0.0110592 0.0110928 0.0111264 0.0111601 0.0111941 0.0112281 0.0112623 0.0112964 0.0113306
0.0113651 0.0113997 0.0114344 0.0114691 0.0115038 0.0115389 0.0115741 0.0116093 0.0116445 0.0116799
0.0117155 0.0117513 0.011787 0.0118229 0.0118588 0.0118689 0.0118791 0.0118892 0.0118994 0.0119093
0.0119355 0.0119618 0.0119881 0.0120144 0.0120408 0.0120777 0.0121146 0.0121516 0.0121887 0.0122258
0.0122633 0.0123008 0.0123385 0.0123762 0.012414 0.0124521 0.0124903 0.0125286 0.012567 0.0126054
0.0126443 0.0126832 0.0127221 0.0127612 0.0128003 0.0128399 0.0128795 0.0129192 0.012959 0.0129989
0.0130391 0.0130795 0.0131199 0.0131605 0.0132011 0.0132234 0.0132457 0.013268 0.0132903 0.0133119
0.0133309 0.01335 0.0133691 0.0133883 0.0134074 0.0134492 0.0134912 0.0135332 0.0135753 0.0136176
0.0136603 0.013703 0.0137459 0.0137889 0.013832 0.0138755 0.0139191 0.0139629 0.0140067 0.0140507
0.0140952 0.0141397 0.0141844 0.0142292 0.0142741 0.0143195 0.014365 0.0144106 0.0144564 0.0145023
0.0145332 0.0145642 0.0145953 0.0146264 0.0146562 0.0146721 0.0146879 0.0147038 0.0147197 0.0147356
0.014783 0.0148306 0.0148783 0.0149261 0.0149741 0.0150225 0.0150712 0.0151199 0.0151688 0.0152179
0.0152675 0.0153173 0.0153672 0.0154172 0.0154675 0.0155182 0.0155692 0.0156203 0.0156716 0.015723
0.015775 0.0158272 0.0158796 0.0159321 0.0159849 0.0159864 0.015988 0.0159895 0.0159911 0.0159927
0.0160444 0.0160964 0.0161485 0.0162008 0.0162533 0.0163079 0.0163628 0.0164178 0.016473 0.0165284
0.0165845 0.0166407 0.0166972 0.0167538 0.0168107 0.0168682 0.016926 0.0169839 0.0170421 0.0171005
0.0171531 0.017206 0.0172591 0.0173123 0.0173634 0.0173704 0.0173773 0.0173843 0.0173912 0.0173982
0.0174588 0.0175197 0.0175809 0.0176422 0.0177039 0.0177662 0.0178288 0.0178916 0.0179546 0.018018
0.018082 0.0181464 0.0182109 0.0182758 0.0183409 0.0184068 0.0184729 0.0185393 0.018606 0.018673
0.0187005 0.0187279 0.0187555 0.018783 0.0188103 0.018851 0.0188919 0.0189329 0.0189739 0.0190151
0.0190849 0.0191549 0.0192252 0.0192958 0.0193667 0.0194385 0.0195105 0.0195829 0.0196556 0.0197286
0.0198025 0.0198767 0.0199512 0.020026 0.0201012 0.0201564 0.0202118 0.0202674 0.0203231 0.0203781
0.0203994 0.0204209 0.0204423 0.0204638 0.0204853 0.0205636 0.0206423 0.0207213 0.0208007 0.0208805
0.0209611 0.0210422 0.0211236 0.0212053 0.0212874 0.0213705 0.021454 0.0215378 0.0216221 0.0217067
0.021788 0.0218697 0.0219517 0.0220341 0.0221158 0.0221204 0.022125 0.0221296 0.0221342 0.0221387
0.022227 0.0223156 0.0224046 0.022494 0.0225838 0.0226746 0.0227659 0.0228576 0.0229496 0.0230421
0.0231357 0.0232297 0.0233241 0.023419 0.0235142 0.0236106 0.0237075 0.0238047 0.0239024 0.0240006
0.0240174 0.0240342 0.0240511 0.0240679 0.0240848 0.0241676 0.0242507 0.0243341 0.0244178 0.0245018
0.0246041 0.0247068 0.0248099 0.0249135 0.0250175 0.0251227 0.0252284 0.0253346 0.0254412 0.0255483
0.0256566 0.0257654 0.0258747 0.0259845 0.0260947 0.0261474 0.0262002 0.0262532 0.0263063 0.0263597
0.026419 0.0264785 0.026538 0.0265977 0.0266575 0.0267723 0.0268875 0.0270031 0.0271193 0.0272358
0.0273538 0.0274722 0.0275911 0.0277105 0.0278304 0.0279516 0.0280734 0.0281956 0.0283184 0.0284415
0.0285563 0.0286716 0.0287872 0.0289033 0.0290217 0.0290313 0.0290409 0.0290506 0.0290602 0.0290698
0.0291979 0.0293264 0.0294555 0.029585 0.029715 0.0298464 0.0299783 0.0301108 0.0302438 0.0303771
0.0305119 0.0306473 0.0307832 0.0309196 0.0310564 0.0311947 0.0313335 0.0314729 0.0316127 0.0317529
0.0318284 0.0319041 0.0319799 0.0320559 0.0321325 0.0321993 0.0322662 0.0323333 0.0324004 0.0324676
0.0326129 0.0327588 0.0329052 0.0330521 0.0331994 0.0333483 0.0334978 0.0336478 0.0337983 0.0339492
0.0341016 0.0342547 0.0344083 0.0345623 0.0347168 0.0348729 0.0350295 0.0351866 0.0353442 0.0355023
0.0355037 0.0355052 0.0355066 0.0355081 0.0355095 0.0356678 0.0358266 0.0359858 0.0361456 0.0363057
0.036469 0.0366328 0.036797 0.0369618 0.037127 0.0372938 0.0374611 0.037629 0.0377973 0.037966
0.0381363 0.0383072 0.0384786 0.0386503 0.0388226 0.0388804 0.0389382 0.0389961 0.039054 0.0391117
0.0392284 0.0393454 0.0394625 0.0395797 0.0396972 0.0398747 0.0400526 0.0402309 0.0404097 0.0405888
0.0407696 0.0409509 0.0411327 0.0413149 0.0414974 0.0416816 0.0418663 0.0420514 0.0422368 0.0424227
0.0424927 0.0425628 0.0426329 0.0427031 0.0427725 0.0428907 0.043009 0.0431274 0.043246 0.0433647
0.0435555 0.0437467 0.0439382 0.04413 0.0443222 0.044516 0.0447102 0.0449047 0.0450996 0.0452947
0.0454914 0.0456885 0.0458859 0.0460834 0.0462813 0.0462962 0.0463111 0.0463259 0.0463408 0.0463556
0.0465404 0.0467254 0.0469105 0.0470958 0.0472813 0.0474833 0.0476855 0.047888 0.0480906 0.0482933
0.0484975 0.0487019 0.0489065 0.0491111 0.0493158 0.0494173 0.0495189 0.0496205 0.0497221 0.0498233
0.0499281 0.0500328 0.0501376 0.0502424 0.0503472 0.050555 0.0507628 0.0509706 0.0511783 0.0513858
0.0515948 0.0518037 0.0520125 0.0522212 0.0524296 0.0525913 0.052753 0.0529146 0.053076 0.0532413
0.0532882 0.0533352 0.0533821 0.0534291 0.0534759 0.0536861 0.0538959 0.0541054 0.0543146 0.0545232
0.0547331 0.0549427 0.0551519 0.0553607 0.0555687 0.0557779 0.0559867 0.056195 0.0564028 0.0566095
0.0566503 0.0566912 0.056732 0.0567728 0.0568148 0.0569811 0.0571471 0.0573126 0.0574777 0.0576421
0.0578483 0.0580539 0.0582588 0.0584629 0.0586653 0.0588604 0.0590549 0.0592488 0.0594418 0.0596332
0.0597091 0.0597848 0.0598604 0.0599358 0.0600156 0.0601354 0.0602548 0.0603738 0.0604923 0.0606102
0.0608098 0.0610081 0.0612053 0.0614011 0.0615953 0.0617959 0.061995 0.0621928 0.0623891 0.0625836
0.0626029 0.0626222 0.0626414 0.0626607 0.0626804 0.062861 0.0630403 0.0632182 0.0633949 0.0635701
0.0637701 0.0639684 0.064165 0.0643598 0.0645526 0.0647513 0.0649482 0.0651432 0.0653363 0.0655275
0.0655717 0.0656159 0.0656599 0.0657039 0.0657505 0.0659008 0.0660499 0.066198 0.0663448 0.0664906
0.0666852 0.0668777 0.0670683 0.0672569 0.0674437 0.0676358 0.0678258 0.0680138 0.0681999 0.0683841
0.0685735 0.0687609 0.0689463 0.0691297 0.0693113 0.0693732 0.069435 0.0694965 0.0695578 0.0696258
0.0697469 0.0698671 0.0699865 0.0701051 0.0702228 0.0704069 0.0705888 0.0707689 0.070947 0.0711235
0.0713049 0.0714843 0.0716618 0.0718374 0.0720115 0.0721905 0.0723675 0.0725426 0.0727159 0.0728877
0.0730644 0.0732391 0.0734121 0.0735832 0.0737529 0.0739274 0.0741001 0.074271 0.0744403 0.074608
0.0747805 0.0749513 0.0751204 0.0752879 0.0754538 0.0755191 0.0755842 0.0756491 0.0757137 0.0757885
0.0758898 0.0759905 0.0760907 0.0761903 0.0762893 0.0764585 0.076626 0.0767918 0.0769561 0.077119
0.0772867 0.0774526 0.0776169 0.0777798 0.0779413 0.0781077 0.0782726 0.0784358 0.0785974 0.0787576
0.0789223 0.0790851 0.0792462 0.0794059 0.0795646 0.0797287 0.0798915 0.080053 0.0802125 0.0803696
0.0805302 0.0806877 0.0808423 0.0809958 0.0811493 -9.99997e-06 -7.99997e-06 -5.99998e-06 -3.99998e-06 -1.99999e-06
0 2.96566e-05 5.93127e-05 8.89677e-05 0.000118621 0.000148273 0.000178656 0.000209037 0.000239415 0.000269789
0.000300159 0.00032931 0.000358456 0.000387597 0.000416733 0.000445864 0.000473826 0.000501784 0.000529736 0.000557683
0.000585626 0.000612448 0.000639266 0.000666079 0.000692889 0.000719694 0.000745423 0.000771149 0.000796871 0.00082259
0.000848304 0.000872987 0.000897666 0.000922342 0.000947014 0.000971683 0.000995362 0.00101904 0.00104271 0.00106638
0.00109005 0.00111277 0.00113548 0.00115819 0.0011809 0.00120361 0.00122541 0.0012472 0.00126899 0.00129078
0.00131257 0.00133349 0.0013544 0.00137531 0.00139621 0.00141712 0.00143719 0.00145725 0.00147731 0.00149738
0.00151743 0.00153669 0.00155594 0.0015752 0.00159445 0.00161369 0.00163217 0.00165065 0.00166912 0.00168759
0.00170606 0.00172379 0.00174152 0.00175925 0.00177698 0.0017947 0.00181172 0.00182873 0.00184574 0.00186275
0.00187976 0.00189609 0.00191241 0.00192874 0.00194506 0.00196138 0.00197705 0.00199272 0.00200838 0.00202405
0.00203971 0.00205017 0.00206062 0.00207108 0.00208153 0.00209199 0.00210252 0.00211306 0.00212359 0.00213412
0.00214466 0.00215527 0.00216588 0.00217649 0.00218711 0.00219772 0.00220841 0.0022191 0.00222979 0.00224048
0.00225118 0.00226195 0.00227272 0.00228349 0.00229426 0.00230504 0.00231589 0.00232674 0.0023376 0.00234845
0.0023593 0.00237024 0.00238117 0.00239211 0.00240304 0.00241398 0.00242499 0.00243601 0.00244703 0.00245805
0.00246906 0.00248017 0.00249127 0.00250237 0.00251347 0.00252457 0.00253576 0.00254694 0.00255813 0.00256931
0.0025805 0.00259177 0.00260304 0.00261431 0.00262558 0.00263685 0.00264821 0.00265957 0.00267092 0.00268228
0.00269364 0.00270508 0.00271652 0.00272797 0.00273941 0.00275085 0.00276239 0.00277392 0.00278545 0.00279698
0.00280851 0.00282013 0.00283175 0.00284337 0.00285499 0.00286661 0.00287832 0.00289003 0.00290173 0.00291344
0.00292515 0.00293695 0.00294875 0.00296055 0.00297235 0.00298414 0.00299603 0.00300792 0.00301981 0.0030317
0.00304359 0.00305557 0.00306755 0.00307953 0.00309151 0.00310349 0.00311556 0.00312764 0.00313971 0.00315178
0.00316385 0.00317602 0.00318818 0.00320035 0.00321251 0.00322468 0.00323694 0.0032492 0.00326145 0.00327371
0.00328597 0.00329832 0.00331068 0.00332303 0.00333538 0.00334774 0.00336018 0.00337263 0.00338508 0.00339753
0.00340997 0.00342252 0.00343506 0.00344761 0.00346015 0.00347269 0.00348533 0.00349797 0.00351061 0.00352325
0.00353589 0.00354863 0.00356136 0.0035741 0.00358684 0.00359957 0.00361241 0.00362525 0.00363808 0.00365091
0.00366375 0.00367668 0.00368962 0.00370255 0.00371548 0.00372842 0.00373708 0.00374574 0.0037544 0.00376306
0.00377168 0.00377606 0.00378044 0.00378482 0.0037892 0.00379358 0.00380671 0.00381984 0.00383298 0.00384611
0.00385924 0.00387248 0.00388571 0.00389894 0.00391218 0.00392541 0.00393875 0.00395208 0.00396542 0.00397875
0.00399209 0.00400552 0.00401896 0.0040324 0.00404584 0.00405928 0.00407282 0.00408636 0.0040999 0.00411344
0.00412698 0.00414063 0.00415427 0.00416792 0.00418156 0.0041952 0.00420896 0.00422271 0.00423646 0.00425021
0.00426395 0.00427781 0.00429167 0.00430552 0.00431938 0.00433323 0.0043472 0.00436116 0.00437512 0.00438908
0.00440305 0.00441712 0.00443119 0.00444526 0.00445933 0.0044734 0.00448758 0.00450175 0.00451593 0.00453011
0.00454429 0.00455858 0.00457287 0.00458715 0.00460144 0.00461573 0.00463013 0.00464452 0.00465892 0.00467332
0.00468772 0.00470223 0.00471674 0.00473125 0.00474575 0.00476026 0.00477489 0.00478951 0.00480413 0.00481875
0.00483337 0.00484811 0.00486285 0.00487758 0.00489231 0.00490705 0.0049219 0.00493675 0.0049516 0.00496645
0.0049813 0.00499627 0.00501123 0.0050262 0.00504116 0.00505613 0.00507121 0.00508629 0.00510137 0.00511645
0.00513154 0.00514674 0.00516194 0.00517714 0.00519234 0.00520754 0.00522286 0.00523818 0.0052535 0.00526882
0.00528414 0.00529958 0.00531502 0.00533046 0.0053459 0.00536134 0.0053769 0.00539246 0.00540802 0.00542359
0.00543915 0.00545484 0.00547052 0.0054862 0.00550189 0.00551757 0.00553339 0.0055492 0.005565 0.00558082
0.00559663 0.00561256 0.0056285 0.00564444 0.00566037 0.00567631 0.00569237 0.00570844 0.0057245 0.00574057
0.00575663 0.00577283 0.00578902 0.00580521 0.00582141 0.0058376 0.0058392 0.0058408 0.0058424 0.00584399
0.00584559 0.00586031 0.00587504 0.00588977 0.0059045 0.00591923 0.00593569 0.00595215 0.00596861 0.00598507
0.00600153 0.00601813 0.00603472 0.00605131 0.00606791 0.00608451 0.00610125 0.00611797 0.00613471 0.00615144
0.00616817 0.00618506 0.00620192 0.00621879 0.00623566 0.00625254 0.00626957 0.00628658 0.00630359 0.0063206
0.00633762 0.0063548 0.00637196 0.00638912 0.00640627 0.00642344 0.00644077 0.00645808 0.00647538 0.00649268
0.00651 0.00652749 0.00654495 0.0065624 0.00657985 0.00659733 0.00661497 0.00663259 0.00665019 0.00666779
0.00668542 0.00670323 0.00672101 0.00673876 0.00675653 0.00677432 0.00679228 0.00681023 0.00682815 0.00684607
0.00686403 0.00688216 0.00690027 0.00691835 0.00693644 0.00695457 0.00697287 0.00699115 0.0070094 0.00702766
0.00704596 0.00706443 0.00708288 0.00710131 0.00711976 0.00713822 0.00715687 0.0071755 0.00719411 0.00721274
0.00723138 0.00725021 0.00726902 0.00728782 0.00730663 0.00732546 0.00734447 0.00736346 0.00738245 0.00740146
0.00742047 0.00743967 0.00745885 0.00747804 0.00749725 0.00751646 0.00753585 0.00755523 0.00757462 0.00759402
0.00761343 0.0076232 0.00763297 0.00764274 0.00765251 0.00766207 0.00767194 0.00768181 0.00769168 0.00770155
0.00771143 0.00773122 0.00775101 0.00777082 0.00779064 0.00781047 0.00783048 0.00785049 0.00787051 0.00789054
0.00791058 0.00793082 0.00795105 0.00797129 0.00799154 0.0080118 0.00803228 0.00805274 0.0080732 0.00809367
0.00811417 0.00813489 0.00815559 0.00817628 0.00819698 0.00821772 0.00823868 0.00825963 0.00828055 0.00830148
0.00832247 0.00834369 0.00836488 0.00838604 0.00840723 0.00842848 0.00844994 0.00847139 0.00849281 0.00851426
0.00853576 0.00855749 0.00857919 0.00860088 0.00862259 0.00864436 0.00866635 0.00868832 0.00871029 0.00873228
0.00875431 0.00877658 0.00879882 0.00882108 0.00884336 0.00886566 0.0088882 0.00891073 0.00893328 0.00895585
0.00897846 0.00900128 0.0090241 0.00904695 0.00906983 0.00909273 0.00910009 0.00910745 0.00911481 0.00912218
0.00912943 0.00914523 0.00916104 0.00917686 0.00919269 0.00920854 0.00923197 0.00925541 0.00927888 0.00930238
0.00932591 0.00934966 0.00937343 0.00939722 0.00942104 0.0094449 0.00946899 0.00949309 0.00951721 0.00954136
0.00956556 0.00959 0.00961445 0.0096389 0.00966339 0.00968794 0.00971273 0.00973753 0.00976234 0.00978719
0.00981209 0.00983725 0.00986241 0.00988759 0.0099128 0.00993807 0.00996359 0.00998913 0.0100147 0.0100403